
             +---------------------------------------------------+
             |                                                   |
             |                   WANNIER90                       |
             |                                                   |
             +---------------------------------------------------+
             |                                                   |
             |        Welcome to the Maximally-Localized         |
             |        Generalized Wannier Functions code         |
             |            http://www.wannier.org                 |
             |                                                   |
             |                                                   |
             |  Wannier90 Developer Group:                       |
             |    Giovanni Pizzi    (EPFL)                       |
             |    Valerio Vitale    (Cambridge)                  |
             |    David Vanderbilt  (Rutgers University)         |
             |    Nicola Marzari    (EPFL)                       |
             |    Ivo Souza         (Universidad del Pais Vasco) |
             |    Arash A. Mostofi  (Imperial College London)    |
             |    Jonathan R. Yates (University of Oxford)       |
             |                                                   |
             |  For the full list of Wannier90 3.x authors,      |
             |  please check the code documentation and the      |
             |  README on the GitHub page of the code            |
             |                                                   |
             |                                                   |
             |  Please cite                                      |
             |                                                   |
             |  [ref] "Wannier90 as a community code:            |
             |        new features and applications",            |
             |        G. Pizzi et al., J. Phys. Cond. Matt. 32,  |
             |        165902 (2020).                             |
             |        http://doi.org/10.1088/1361-648X/ab51ff    |
             |                                                   |
             |  in any publications arising from the use of      |
             |  this code. For the method please cite            |
             |                                                   |
             |  [ref] "Maximally Localized Generalised Wannier   |
             |         Functions for Composite Energy Bands"     |
             |         N. Marzari and D. Vanderbilt              |
             |         Phys. Rev. B 56 12847 (1997)              |
             |                                                   |
             |  [ref] "Maximally Localized Wannier Functions     |
             |         for Entangled Energy Bands"               |
             |         I. Souza, N. Marzari and D. Vanderbilt    |
             |         Phys. Rev. B 65 035109 (2001)             |
             |                                                   |
             |                                                   |
             | Copyright (c) 1996-2020                           |
             |        The Wannier90 Developer Group and          |
             |        individual contributors                    |
             |                                                   |
             |      Release: 3.1.0        5th March    2020      |
             |                                                   |
             | This program is free software; you can            |
             | redistribute it and/or modify it under the terms  |
             | of the GNU General Public License as published by |
             | the Free Software Foundation; either version 2 of |
             | the License, or (at your option) any later version|
             |                                                   |
             | This program is distributed in the hope that it   |
             | will be useful, but WITHOUT ANY WARRANTY; without |
             | even the implied warranty of MERCHANTABILITY or   |
             | FITNESS FOR A PARTICULAR PURPOSE. See the GNU     |
             | General Public License for more details.          |
             |                                                   |
             | You should have received a copy of the GNU General|
             | Public License along with this program; if not,   |
             | write to the Free Software Foundation, Inc.,      |
             | 675 Mass Ave, Cambridge, MA 02139, USA.           |
             |                                                   |
             +---------------------------------------------------+
             |    Execution started on  1Jul2021 at 07:56:54     |
             +---------------------------------------------------+
 
 ******************************************************************************
 * -> Using CODATA 2006 constant values                                       *
 *    (http://physics.nist.gov/cuu/Constants/index.html)                      *
 * -> Using Bohr value from CODATA                                            *
 ******************************************************************************
 

 Running in serial (with parallel executable)

                                    ------
                                    SYSTEM
                                    ------

                              Lattice Vectors (Ang)
                    a_1     4.102840   0.000000   0.000000
                    a_2     2.051420   3.553164   0.000000
                    a_3     0.000000   0.000000  28.742975

                   Unit Cell Volume:     419.01685  (Ang^3)

                        Reciprocal-Space Vectors (Ang^-1)
                    b_1     1.531423  -0.884168   0.000000
                    b_2     0.000000   1.768335   0.000000
                    b_3     0.000000   0.000000   0.218599
  
 *----------------------------------------------------------------------------*
 |   Site       Fractional Coordinate          Cartesian Coordinate (Ang)     |
 +----------------------------------------------------------------------------+
 | In   1   0.83333   0.83333   0.57186   |    5.12854   2.96097  16.43707    |
 | In   2   0.50000   0.50000   0.42472   |    3.07711   1.77657  12.20771    |
 | Se   1   0.16666   0.16666   0.38138   |    1.02569   0.59218  10.96202    |
 | Se   2   0.16667   0.16667   0.61780   |    1.02570   0.59219  17.75752    |
 | Se   3   0.50000   0.50000   0.51336   |    3.07712   1.77657  14.75554    |
 *----------------------------------------------------------------------------*
                                ------------
                                K-POINT GRID
                                ------------
  
             Grid size =  9 x  9 x  1      Total points =   81
  
  
 *---------------------------------- MAIN ------------------------------------*
 |  Number of Wannier Functions               :                22             |
 |  Number of Objective Wannier Functions     :                22             |
 |  Number of input Bloch states              :                22             |
 |  Output verbosity (1=low, 5=high)          :                 1             |
 |  Timing Level (1=low, 5=high)              :                 1             |
 |  Optimisation (0=memory, 3=speed)          :                 3             |
 |  Length Unit                               :               Ang             |
 |  Post-processing setup (write *.nnkp)      :                 F             |
 |  Using Gamma-only branch of algorithms     :                 F             |
 *----------------------------------------------------------------------------*
 *------------------------------- WANNIERISE ---------------------------------*
 |  Total number of iterations                :               100             |
 |  Number of CG steps before reset           :                 5             |
 |  Trial step length for line search         :             2.000             |
 |  Convergence tolerence                     :         0.100E-09             |
 |  Convergence window                        :                -1             |
 |  Iterations between writing output         :                 1             |
 |  Iterations between backing up to disk     :               100             |
 |  Write r^2_nm to file                      :                 F             |
 |  Write xyz WF centres to file              :                 T             |
 |  Write on-site energies <0n|H|0n> to file  :                 F             |
 |  Use guiding centre to control phases      :                 T             |
 |  Use phases for initial projections        :                 F             |
 |  Iterations before starting guiding centres:                 0             |
 |  Iterations between using guiding centres  :                 1             |
 *----------------------------------------------------------------------------*
 *-------------------------------- PLOTTING ----------------------------------*
 |  Plotting interpolated bandstructure       :                 T             |
 |   Number of K-path sections                :                 3             |
 |   Divisions along first K-path section     :                50             |
 |   Output format                            :           gnuplot             |
 |   Output mode                              :               s-k             |
 *----------------------------------------------------------------------------*
 |   K-space path sections:                                                   |
 |    From: G       0.000  0.000  0.000     To: Y       0.000  0.500  0.000   |
 |    From: Y       0.000  0.500  0.000     To: M       0.333  0.333  0.000   |
 |    From: M       0.333  0.333  0.000     To: G       0.000  0.000  0.000   |
 *----------------------------------------------------------------------------*
 |  Plotting Hamiltonian in WF basis          :                 T             |
 *----------------------------------------------------------------------------*
 Time to read parameters        0.014 (sec)

 *---------------------------------- K-MESH ----------------------------------*
 +----------------------------------------------------------------------------+
 |                    Distance to Nearest-Neighbour Shells                    |
 |                    ------------------------------------                    |
 |          Shell             Distance (Ang^-1)          Multiplicity         |
 |          -----             -----------------          ------------         |
 |             1                   0.196482                      6            |
 |             2                   0.218599                      2            |
 |             3                   0.293923                     12            |
 |             4                   0.340316                      6            |
 |             5                   0.392963                      6            |
 |             6                   0.404476                     12            |
 |             7                   0.437198                      2            |
 |             8                   0.449673                     12            |
 |             9                   0.479319                     12            |
 |            10                   0.519842                     12            |
 |            11                   0.554037                     12            |
 |            12                   0.563933                     24            |
 |            13                   0.587846                     12            |
 |            14                   0.589445                      6            |
 |            15                   0.628674                     12            |
 |            16                   0.655797                      2            |
 |            17                   0.679248                     24            |
 |            18                   0.680633                      6            |
 |            19                   0.684598                     12            |
 |            20                   0.708425                     12            |
 |            21                   0.714875                     12            |
 |            22                   0.733885                     12            |
 |            23                   0.738840                     12            |
 |            24                   0.741385                     24            |
 |            25                   0.764519                     12            |
 |            26                   0.785927                      6            |
 |            27                   0.808952                     12            |
 |            28                   0.815761                     12            |
 |            29                   0.832471                     24            |
 |            30                   0.836842                     24            |
 |            31                   0.856444                     12            |
 |            32                   0.874396                      2            |
 |            33                   0.881768                     12            |
 |            34                   0.883901                     24            |
 |            35                   0.896199                     12            |
 |            36                   0.899346                     12            |
 +----------------------------------------------------------------------------+
 | The b-vectors are chosen automatically                                     |
 | The following shells are used:   1,  2                                     |
 +----------------------------------------------------------------------------+
 |                        Shell   # Nearest-Neighbours                        |
 |                        -----   --------------------                        |
 |                          1               6                                 |
 |                          2               2                                 |
 +----------------------------------------------------------------------------+
 | Completeness relation is fully satisfied [Eq. (B1), PRB 56, 12847 (1997)]  |
 +----------------------------------------------------------------------------+
 |                  b_k Vectors (Ang^-1) and Weights (Ang^2)                  |
 |                  ----------------------------------------                  |
 |            No.         b_k(x)      b_k(y)      b_k(z)        w_b           |
 |            ---        --------------------------------     --------        |
 |             1         0.170158   -0.098241    0.000000     8.634445        |
 |             2        -0.170158    0.098241    0.000000     8.634445        |
 |             3         0.000000    0.196482    0.000000     8.634445        |
 |             4         0.170158    0.098241    0.000000     8.634445        |
 |             5         0.000000   -0.196482    0.000000     8.634445        |
 |             6        -0.170158   -0.098241    0.000000     8.634445        |
 |             7         0.000000    0.000000    0.218599    10.463421        |
 |             8         0.000000    0.000000   -0.218599    10.463421        |
 +----------------------------------------------------------------------------+
 |                           b_k Directions (Ang^-1)                          |
 |                           -----------------------                          |
 |            No.           x           y           z                         |
 |            ---        --------------------------------                     |
 |             1         0.170158   -0.098241    0.000000                     |
 |             2         0.000000    0.196482    0.000000                     |
 |             3         0.170158    0.098241    0.000000                     |
 |             4         0.000000    0.000000    0.218599                     |
 +----------------------------------------------------------------------------+
  
 Time to get kmesh              0.119 (sec)
 *============================================================================*
 |                              MEMORY ESTIMATE                               |
 |         Maximum RAM allocated during each phase of the calculation         |
 *============================================================================*
 |                            Wannierise:           12.60 Mb                  |
 |                          plot_wannier:           12.60 Mb                  |
 *----------------------------------------------------------------------------*
  
 Starting a new Wannier90 calculation ...


 Reading overlaps from wannier90.mmn    : File generated by VASP: MoTe2

 Reading projections from wannier90.amn : File generated by VASP: MoTe2

 Time to read overlaps          0.696 (sec)

 Writing checkpoint file wannier90.chk... done


 *------------------------------- WANNIERISE ---------------------------------*
 +--------------------------------------------------------------------+<-- CONV
 | Iter  Delta Spread     RMS Gradient      Spread (Ang^2)      Time  |<-- CONV
 +--------------------------------------------------------------------+<-- CONV

 ------------------------------------------------------------------------------
 Initial State
  WF centre and spread    1  (  5.128542,  2.960690, 16.002765 )     5.59738557
  WF centre and spread    2  (  5.128542,  2.960690, 16.002765 )     5.59738560
  WF centre and spread    3  (  3.077104,  1.778595, 12.226750 )     4.81227411
  WF centre and spread    4  (  3.077104,  1.778595, 12.226750 )     4.81227420
  WF centre and spread    5  (  1.025687,  0.592123, 10.996321 )     2.35381080
  WF centre and spread    6  (  1.025687,  0.592123, 10.996321 )     2.35381084
  WF centre and spread    7  (  1.025686,  0.669187, 11.138550 )     2.89269878
  WF centre and spread    8  (  1.025686,  0.669187, 11.138550 )     2.89269879
  WF centre and spread    9  (  1.025687,  0.512649, 11.137883 )     2.88837187
  WF centre and spread   10  (  1.025687,  0.512649, 11.137883 )     2.88837188
  WF centre and spread   11  (  1.025705,  0.592120, 17.691793 )     2.53562286
  WF centre and spread   12  (  1.025705,  0.592120, 17.691793 )     2.53562284
  WF centre and spread   13  (  1.025704,  0.480858, 17.515329 )     3.33253346
  WF centre and spread   14  (  1.025704,  0.480858, 17.515329 )     3.33253347
  WF centre and spread   15  (  1.025705,  0.705254, 17.515338 )     3.32972175
  WF centre and spread   16  (  1.025705,  0.705254, 17.515338 )     3.32972176
  WF centre and spread   17  (  3.077117,  1.776153, 14.699867 )     3.02236459
  WF centre and spread   18  (  3.077117,  1.776153, 14.699867 )     3.02236460
  WF centre and spread   19  (  3.077118,  1.830563, 14.679723 )     2.76434536
  WF centre and spread   20  (  3.077118,  1.830563, 14.679723 )     2.76434536
  WF centre and spread   21  (  3.077117,  1.722320, 14.678347 )     2.75863718
  WF centre and spread   22  (  3.077117,  1.722320, 14.678347 )     2.75863718
  Sum of centres and spreads ( 47.182344, 27.241019,316.565331 )    72.57553286

      0     0.726E+02     0.0000000000       72.5755310713       0.00  <-- CONV
        O_D=      0.5273749 O_OD=      7.8527868 O_TOT=     72.5755311 <-- SPRD
 ------------------------------------------------------------------------------
 Cycle:      1
  WF centre and spread    1  (  5.128542,  2.960871, 15.990667 )     5.20424875
  WF centre and spread    2  (  5.128542,  2.960871, 15.990667 )     5.20424878
  WF centre and spread    3  (  3.077104,  1.777202, 12.229120 )     4.32617282
  WF centre and spread    4  (  3.077104,  1.777202, 12.229120 )     4.32617289
  WF centre and spread    5  (  1.025687,  0.592152, 10.993200 )     2.33919357
  WF centre and spread    6  (  1.025687,  0.592152, 10.993200 )     2.33919360
  WF centre and spread    7  (  1.025686,  0.673359, 11.138469 )     2.78494700
  WF centre and spread    8  (  1.025686,  0.673359, 11.138469 )     2.78494701
  WF centre and spread    9  (  1.025687,  0.509434, 11.137914 )     2.78247502
  WF centre and spread   10  (  1.025687,  0.509434, 11.137914 )     2.78247503
  WF centre and spread   11  (  1.025705,  0.592255, 17.693020 )     2.48289362
  WF centre and spread   12  (  1.025705,  0.592255, 17.693020 )     2.48289361
  WF centre and spread   13  (  1.025704,  0.482693, 17.524270 )     3.20272855
  WF centre and spread   14  (  1.025704,  0.482693, 17.524270 )     3.20272856
  WF centre and spread   15  (  1.025705,  0.702618, 17.524312 )     3.19975862
  WF centre and spread   16  (  1.025705,  0.702618, 17.524312 )     3.19975863
  WF centre and spread   17  (  3.077117,  1.776415, 14.691850 )     3.01046515
  WF centre and spread   18  (  3.077117,  1.776415, 14.691850 )     3.01046516
  WF centre and spread   19  (  3.077118,  1.829603, 14.676642 )     2.74988474
  WF centre and spread   20  (  3.077118,  1.829603, 14.676642 )     2.74988475
  WF centre and spread   21  (  3.077117,  1.723614, 14.675761 )     2.74646712
  WF centre and spread   22  (  3.077117,  1.723614, 14.675761 )     2.74646712
  Sum of centres and spreads ( 47.182344, 27.240432,316.550451 )    69.65847012

      1    -0.292E+01     2.5865668263       69.6584683257       0.09  <-- CONV
        O_D=      0.4362832 O_OD=      5.0268158 O_TOT=     69.6584683 <-- SPRD
 Delta: O_D= -0.9109175E-01 O_OD= -0.2825971E+01 O_TOT= -0.2917063E+01 <-- DLTA
 ------------------------------------------------------------------------------
 Cycle:      2
  WF centre and spread    1  (  5.128542,  2.960805, 15.983782 )     5.10437872
  WF centre and spread    2  (  5.128542,  2.960805, 15.983782 )     5.10437876
  WF centre and spread    3  (  3.077104,  1.776910, 12.229245 )     4.18714159
  WF centre and spread    4  (  3.077104,  1.776910, 12.229245 )     4.18714166
  WF centre and spread    5  (  1.025687,  0.592162, 10.992412 )     2.34467150
  WF centre and spread    6  (  1.025687,  0.592162, 10.992412 )     2.34467154
  WF centre and spread    7  (  1.025686,  0.674814, 11.138834 )     2.79213474
  WF centre and spread    8  (  1.025686,  0.674814, 11.138834 )     2.79213475
  WF centre and spread    9  (  1.025687,  0.508231, 11.138398 )     2.79054698
  WF centre and spread   10  (  1.025687,  0.508231, 11.138398 )     2.79054699
  WF centre and spread   11  (  1.025705,  0.592216, 17.694043 )     2.46467216
  WF centre and spread   12  (  1.025705,  0.592216, 17.694043 )     2.46467215
  WF centre and spread   13  (  1.025704,  0.483807, 17.529918 )     3.13804584
  WF centre and spread   14  (  1.025704,  0.483807, 17.529918 )     3.13804585
  WF centre and spread   15  (  1.025705,  0.701589, 17.529996 )     3.13559365
  WF centre and spread   16  (  1.025705,  0.701589, 17.529996 )     3.13559366
  WF centre and spread   17  (  3.077117,  1.776538, 14.686685 )     3.03620999
  WF centre and spread   18  (  3.077117,  1.776538, 14.686685 )     3.03621001
  WF centre and spread   19  (  3.077118,  1.829232, 14.674205 )     2.76098244
  WF centre and spread   20  (  3.077118,  1.829232, 14.674205 )     2.76098245
  WF centre and spread   21  (  3.077117,  1.723881, 14.673681 )     2.75871081
  WF centre and spread   22  (  3.077117,  1.723881, 14.673681 )     2.75871082
  Sum of centres and spreads ( 47.182344, 27.240370,316.542399 )    69.02617705

      2    -0.632E+00     1.4456567918       69.0261752629       0.16  <-- CONV
        O_D=      0.4054437 O_OD=      4.4253622 O_TOT=     69.0261753 <-- SPRD
 Delta: O_D= -0.3083943E-01 O_OD= -0.6014536E+00 O_TOT= -0.6322931E+00 <-- DLTA
 ------------------------------------------------------------------------------
 Cycle:      3
  WF centre and spread    1  (  5.128542,  2.960775, 15.977611 )     5.10704686
  WF centre and spread    2  (  5.128542,  2.960775, 15.977611 )     5.10704689
  WF centre and spread    3  (  3.077104,  1.776841, 12.231413 )     4.14034094
  WF centre and spread    4  (  3.077104,  1.776841, 12.231413 )     4.14034100
  WF centre and spread    5  (  1.025687,  0.592180, 10.991841 )     2.34349583
  WF centre and spread    6  (  1.025687,  0.592180, 10.991841 )     2.34349586
  WF centre and spread    7  (  1.025686,  0.675495, 11.138811 )     2.79688516
  WF centre and spread    8  (  1.025686,  0.675495, 11.138811 )     2.79688517
  WF centre and spread    9  (  1.025687,  0.507610, 11.138557 )     2.79564891
  WF centre and spread   10  (  1.025687,  0.507610, 11.138557 )     2.79564892
  WF centre and spread   11  (  1.025705,  0.592177, 17.694595 )     2.45766448
  WF centre and spread   12  (  1.025705,  0.592177, 17.694595 )     2.45766447
  WF centre and spread   13  (  1.025704,  0.484435, 17.534219 )     3.08213962
  WF centre and spread   14  (  1.025704,  0.484435, 17.534219 )     3.08213963
  WF centre and spread   15  (  1.025705,  0.701103, 17.534312 )     3.08022687
  WF centre and spread   16  (  1.025705,  0.701103, 17.534312 )     3.08022688
  WF centre and spread   17  (  3.077117,  1.776622, 14.683130 )     3.06899455
  WF centre and spread   18  (  3.077117,  1.776622, 14.683130 )     3.06899457
  WF centre and spread   19  (  3.077118,  1.829171, 14.672224 )     2.76933434
  WF centre and spread   20  (  3.077118,  1.829171, 14.672224 )     2.76933434
  WF centre and spread   21  (  3.077117,  1.723755, 14.671958 )     2.76784823
  WF centre and spread   22  (  3.077117,  1.723755, 14.671958 )     2.76784823
  Sum of centres and spreads ( 47.182344, 27.240329,316.537342 )    68.81925175

      3    -0.207E+00     0.8226325058       68.8192499556       0.23  <-- CONV
        O_D=      0.4066162 O_OD=      4.2172644 O_TOT=     68.8192500 <-- SPRD
 Delta: O_D=  0.1172472E-02 O_OD= -0.2080978E+00 O_TOT= -0.2069253E+00 <-- DLTA
 ------------------------------------------------------------------------------
 Cycle:      4
  WF centre and spread    1  (  5.128542,  2.960823, 15.967215 )     5.15248776
  WF centre and spread    2  (  5.128542,  2.960823, 15.967215 )     5.15248779
  WF centre and spread    3  (  3.077104,  1.776773, 12.237327 )     4.10909210
  WF centre and spread    4  (  3.077104,  1.776773, 12.237327 )     4.10909216
  WF centre and spread    5  (  1.025687,  0.592192, 10.991237 )     2.34558056
  WF centre and spread    6  (  1.025687,  0.592192, 10.991237 )     2.34558059
  WF centre and spread    7  (  1.025686,  0.675547, 11.138377 )     2.79590006
  WF centre and spread    8  (  1.025686,  0.675547, 11.138377 )     2.79590006
  WF centre and spread    9  (  1.025687,  0.507622, 11.138396 )     2.79526448
  WF centre and spread   10  (  1.025687,  0.507622, 11.138396 )     2.79526449
  WF centre and spread   11  (  1.025705,  0.592124, 17.694896 )     2.45261938
  WF centre and spread   12  (  1.025705,  0.592124, 17.694896 )     2.45261938
  WF centre and spread   13  (  1.025704,  0.484757, 17.539532 )     3.00239508
  WF centre and spread   14  (  1.025704,  0.484757, 17.539532 )     3.00239509
  WF centre and spread   15  (  1.025705,  0.700936, 17.539617 )     3.00155765
  WF centre and spread   16  (  1.025705,  0.700936, 17.539617 )     3.00155765
  WF centre and spread   17  (  3.077117,  1.776737, 14.679247 )     3.12070872
  WF centre and spread   18  (  3.077117,  1.776737, 14.679247 )     3.12070873
  WF centre and spread   19  (  3.077118,  1.829295, 14.669718 )     2.77918233
  WF centre and spread   20  (  3.077118,  1.829295, 14.669718 )     2.77918233
  WF centre and spread   21  (  3.077117,  1.723358, 14.669786 )     2.77890442
  WF centre and spread   22  (  3.077117,  1.723358, 14.669786 )     2.77890442
  Sum of centres and spreads ( 47.182344, 27.240327,316.530695 )    68.66738523

      4    -0.152E+00     0.5874525732       68.6673834392       0.29  <-- CONV
        O_D=      0.4070950 O_OD=      4.0649191 O_TOT=     68.6673834 <-- SPRD
 Delta: O_D=  0.4787511E-03 O_OD= -0.1523453E+00 O_TOT= -0.1518665E+00 <-- DLTA
 ------------------------------------------------------------------------------
 Cycle:      5
  WF centre and spread    1  (  5.128542,  2.960977, 15.959264 )     5.19398419
  WF centre and spread    2  (  5.128542,  2.960977, 15.959264 )     5.19398423
  WF centre and spread    3  (  3.077104,  1.776731, 12.242105 )     4.09688667
  WF centre and spread    4  (  3.077104,  1.776731, 12.242105 )     4.09688673
  WF centre and spread    5  (  1.025687,  0.592201, 10.990855 )     2.35054636
  WF centre and spread    6  (  1.025687,  0.592201, 10.990855 )     2.35054639
  WF centre and spread    7  (  1.025686,  0.675393, 11.137943 )     2.79066387
  WF centre and spread    8  (  1.025686,  0.675393, 11.137943 )     2.79066388
  WF centre and spread    9  (  1.025687,  0.507785, 11.138119 )     2.79016121
  WF centre and spread   10  (  1.025687,  0.507785, 11.138119 )     2.79016122
  WF centre and spread   11  (  1.025705,  0.592084, 17.694918 )     2.44848691
  WF centre and spread   12  (  1.025705,  0.592084, 17.694918 )     2.44848690
  WF centre and spread   13  (  1.025704,  0.484637, 17.543129 )     2.94226222
  WF centre and spread   14  (  1.025704,  0.484637, 17.543129 )     2.94226222
  WF centre and spread   15  (  1.025705,  0.701124, 17.543191 )     2.94209063
  WF centre and spread   16  (  1.025705,  0.701124, 17.543191 )     2.94209063
  WF centre and spread   17  (  3.077117,  1.776818, 14.677233 )     3.16174157
  WF centre and spread   18  (  3.077117,  1.776818, 14.677233 )     3.16174159
  WF centre and spread   19  (  3.077118,  1.829434, 14.667897 )     2.78611522
  WF centre and spread   20  (  3.077118,  1.829434, 14.667897 )     2.78611523
  WF centre and spread   21  (  3.077117,  1.722996, 14.668201 )     2.78651190
  WF centre and spread   22  (  3.077117,  1.722996, 14.668201 )     2.78651191
  Sum of centres and spreads ( 47.182344, 27.240360,316.525709 )    68.57890168

      5    -0.885E-01     0.5321220054       68.5788998907       0.36  <-- CONV
        O_D=      0.4106447 O_OD=      3.9728858 O_TOT=     68.5788999 <-- SPRD
 Delta: O_D=  0.3549759E-02 O_OD= -0.9203331E-01 O_TOT= -0.8848355E-01 <-- DLTA
 ------------------------------------------------------------------------------
 Cycle:      6
  WF centre and spread    1  (  5.128542,  2.961100, 15.955645 )     5.21662661
  WF centre and spread    2  (  5.128542,  2.961100, 15.955645 )     5.21662664
  WF centre and spread    3  (  3.077104,  1.776763, 12.243485 )     4.09180271
  WF centre and spread    4  (  3.077104,  1.776763, 12.243485 )     4.09180278
  WF centre and spread    5  (  1.025687,  0.592207, 10.990491 )     2.35616841
  WF centre and spread    6  (  1.025687,  0.592207, 10.990491 )     2.35616844
  WF centre and spread    7  (  1.025686,  0.675330, 11.137725 )     2.78533307
  WF centre and spread    8  (  1.025686,  0.675330, 11.137725 )     2.78533308
  WF centre and spread    9  (  1.025687,  0.507771, 11.137930 )     2.78489601
  WF centre and spread   10  (  1.025687,  0.507771, 11.137930 )     2.78489602
  WF centre and spread   11  (  1.025705,  0.592056, 17.694803 )     2.44710323
  WF centre and spread   12  (  1.025705,  0.592056, 17.694803 )     2.44710322
  WF centre and spread   13  (  1.025704,  0.484390, 17.545012 )     2.90929299
  WF centre and spread   14  (  1.025704,  0.484390, 17.545012 )     2.90929299
  WF centre and spread   15  (  1.025705,  0.701400, 17.545045 )     2.90932042
  WF centre and spread   16  (  1.025705,  0.701400, 17.545045 )     2.90932042
  WF centre and spread   17  (  3.077116,  1.776859, 14.677131 )     3.18619198
  WF centre and spread   18  (  3.077116,  1.776859, 14.677131 )     3.18619199
  WF centre and spread   19  (  3.077118,  1.829489, 14.666896 )     2.79088025
  WF centre and spread   20  (  3.077118,  1.829489, 14.666896 )     2.79088026
  WF centre and spread   21  (  3.077117,  1.722802, 14.667293 )     2.79138673
  WF centre and spread   22  (  3.077117,  1.722802, 14.667293 )     2.79138674
  Sum of centres and spreads ( 47.182344, 27.240332,316.522911 )    68.53800498

      6    -0.409E-01     0.3554040808       68.5380031925       0.42  <-- CONV
        O_D=      0.4110495 O_OD=      3.9315844 O_TOT=     68.5380032 <-- SPRD
 Delta: O_D=  0.4047409E-03 O_OD= -0.4130144E-01 O_TOT= -0.4089670E-01 <-- DLTA
 ------------------------------------------------------------------------------
 Cycle:      7
  WF centre and spread    1  (  5.128542,  2.961093, 15.955729 )     5.21475588
  WF centre and spread    2  (  5.128542,  2.961093, 15.955729 )     5.21475592
  WF centre and spread    3  (  3.077104,  1.776789, 12.242753 )     4.08932459
  WF centre and spread    4  (  3.077104,  1.776789, 12.242753 )     4.08932465
  WF centre and spread    5  (  1.025687,  0.592208, 10.990334 )     2.35749199
  WF centre and spread    6  (  1.025687,  0.592208, 10.990334 )     2.35749202
  WF centre and spread    7  (  1.025686,  0.675342, 11.137758 )     2.78390160
  WF centre and spread    8  (  1.025686,  0.675342, 11.137758 )     2.78390161
  WF centre and spread    9  (  1.025687,  0.507746, 11.137942 )     2.78347490
  WF centre and spread   10  (  1.025687,  0.507746, 11.137942 )     2.78347491
  WF centre and spread   11  (  1.025705,  0.592051, 17.694801 )     2.44735389
  WF centre and spread   12  (  1.025705,  0.592051, 17.694801 )     2.44735388
  WF centre and spread   13  (  1.025704,  0.484385, 17.545196 )     2.90655724
  WF centre and spread   14  (  1.025704,  0.484385, 17.545196 )     2.90655724
  WF centre and spread   15  (  1.025705,  0.701401, 17.545223 )     2.90649154
  WF centre and spread   16  (  1.025705,  0.701401, 17.545223 )     2.90649154
  WF centre and spread   17  (  3.077116,  1.776858, 14.677632 )     3.18866837
  WF centre and spread   18  (  3.077116,  1.776858, 14.677632 )     3.18866838
  WF centre and spread   19  (  3.077118,  1.829460, 14.666840 )     2.79158419
  WF centre and spread   20  (  3.077118,  1.829460, 14.666840 )     2.79158420
  WF centre and spread   21  (  3.077117,  1.722832, 14.667203 )     2.79191315
  WF centre and spread   22  (  3.077117,  1.722832, 14.667203 )     2.79191316
  Sum of centres and spreads ( 47.182344, 27.240330,316.522820 )    68.52303484

      7    -0.150E-01     0.2650849903       68.5230330508       0.48  <-- CONV
        O_D=      0.4108779 O_OD=      3.9167858 O_TOT=     68.5230331 <-- SPRD
 Delta: O_D= -0.1715692E-03 O_OD= -0.1479857E-01 O_TOT= -0.1497014E-01 <-- DLTA
 ------------------------------------------------------------------------------
 Cycle:      8
  WF centre and spread    1  (  5.128542,  2.961086, 15.955642 )     5.21390453
  WF centre and spread    2  (  5.128542,  2.961086, 15.955642 )     5.21390457
  WF centre and spread    3  (  3.077104,  1.776846, 12.241123 )     4.08482100
  WF centre and spread    4  (  3.077104,  1.776846, 12.241123 )     4.08482106
  WF centre and spread    5  (  1.025687,  0.592211, 10.989970 )     2.36139327
  WF centre and spread    6  (  1.025687,  0.592211, 10.989970 )     2.36139330
  WF centre and spread    7  (  1.025686,  0.675334, 11.137852 )     2.78099070
  WF centre and spread    8  (  1.025686,  0.675334, 11.137852 )     2.78099071
  WF centre and spread    9  (  1.025687,  0.507735, 11.137984 )     2.78059903
  WF centre and spread   10  (  1.025687,  0.507735, 11.137984 )     2.78059904
  WF centre and spread   11  (  1.025705,  0.592032, 17.694778 )     2.44817184
  WF centre and spread   12  (  1.025705,  0.592032, 17.694778 )     2.44817183
  WF centre and spread   13  (  1.025704,  0.484349, 17.545683 )     2.89984677
  WF centre and spread   14  (  1.025704,  0.484349, 17.545683 )     2.89984677
  WF centre and spread   15  (  1.025705,  0.701435, 17.545696 )     2.89958541
  WF centre and spread   16  (  1.025705,  0.701435, 17.545696 )     2.89958542
  WF centre and spread   17  (  3.077116,  1.776857, 14.678911 )     3.19678187
  WF centre and spread   18  (  3.077116,  1.776857, 14.678911 )     3.19678189
  WF centre and spread   19  (  3.077118,  1.829392, 14.666688 )     2.79431117
  WF centre and spread   20  (  3.077118,  1.829392, 14.666688 )     2.79431117
  WF centre and spread   21  (  3.077117,  1.722894, 14.666962 )     2.79424037
  WF centre and spread   22  (  3.077117,  1.722894, 14.666962 )     2.79424037
  Sum of centres and spreads ( 47.182344, 27.240342,316.522581 )    68.50929207

      8    -0.137E-01     0.1810041025       68.5092902836       0.54  <-- CONV
        O_D=      0.4116759 O_OD=      3.9022450 O_TOT=     68.5092903 <-- SPRD
 Delta: O_D=  0.7980164E-03 O_OD= -0.1454078E-01 O_TOT= -0.1374277E-01 <-- DLTA
 ------------------------------------------------------------------------------
 Cycle:      9
  WF centre and spread    1  (  5.128542,  2.961092, 15.955245 )     5.21611045
  WF centre and spread    2  (  5.128542,  2.961092, 15.955245 )     5.21611049
  WF centre and spread    3  (  3.077104,  1.776890, 12.240069 )     4.08142152
  WF centre and spread    4  (  3.077104,  1.776890, 12.240069 )     4.08142158
  WF centre and spread    5  (  1.025687,  0.592216, 10.989656 )     2.36465379
  WF centre and spread    6  (  1.025687,  0.592216, 10.989656 )     2.36465382
  WF centre and spread    7  (  1.025686,  0.675275, 11.137892 )     2.77805386
  WF centre and spread    8  (  1.025686,  0.675275, 11.137892 )     2.77805387
  WF centre and spread    9  (  1.025687,  0.507800, 11.137985 )     2.77767575
  WF centre and spread   10  (  1.025687,  0.507800, 11.137985 )     2.77767576
  WF centre and spread   11  (  1.025705,  0.592007, 17.694751 )     2.44835757
  WF centre and spread   12  (  1.025705,  0.592007, 17.694751 )     2.44835756
  WF centre and spread   13  (  1.025704,  0.484256, 17.546170 )     2.89202602
  WF centre and spread   14  (  1.025704,  0.484256, 17.546170 )     2.89202603
  WF centre and spread   15  (  1.025705,  0.701532, 17.546175 )     2.89169640
  WF centre and spread   16  (  1.025705,  0.701532, 17.546175 )     2.89169640
  WF centre and spread   17  (  3.077116,  1.776860, 14.680002 )     3.20615343
  WF centre and spread   18  (  3.077116,  1.776860, 14.680002 )     3.20615344
  WF centre and spread   19  (  3.077118,  1.829350, 14.666526 )     2.79731380
  WF centre and spread   20  (  3.077118,  1.829350, 14.666526 )     2.79731381
  WF centre and spread   21  (  3.077117,  1.722911, 14.666718 )     2.79696412
  WF centre and spread   22  (  3.077117,  1.722911, 14.666718 )     2.79696412
  Sum of centres and spreads ( 47.182344, 27.240378,316.522379 )    68.50085359

      9    -0.844E-02     0.1633754172       68.5008518049       0.60  <-- CONV
        O_D=      0.4126838 O_OD=      3.8927986 O_TOT=     68.5008518 <-- SPRD
 Delta: O_D=  0.1007902E-02 O_OD= -0.9446380E-02 O_TOT= -0.8438479E-02 <-- DLTA
 ------------------------------------------------------------------------------
 Cycle:     10
  WF centre and spread    1  (  5.128542,  2.961099, 15.954843 )     5.22120306
  WF centre and spread    2  (  5.128542,  2.961099, 15.954843 )     5.22120310
  WF centre and spread    3  (  3.077104,  1.776918, 12.239871 )     4.07937868
  WF centre and spread    4  (  3.077104,  1.776918, 12.239871 )     4.07937875
  WF centre and spread    5  (  1.025687,  0.592220, 10.989463 )     2.36607200
  WF centre and spread    6  (  1.025687,  0.592220, 10.989463 )     2.36607203
  WF centre and spread    7  (  1.025686,  0.675205, 11.137850 )     2.77579048
  WF centre and spread    8  (  1.025686,  0.675205, 11.137850 )     2.77579049
  WF centre and spread    9  (  1.025687,  0.507886, 11.137928 )     2.77537666
  WF centre and spread   10  (  1.025687,  0.507886, 11.137928 )     2.77537666
  WF centre and spread   11  (  1.025705,  0.591982, 17.694733 )     2.44806958
  WF centre and spread   12  (  1.025705,  0.591982, 17.694733 )     2.44806957
  WF centre and spread   13  (  1.025704,  0.484126, 17.546520 )     2.88499334
  WF centre and spread   14  (  1.025704,  0.484126, 17.546520 )     2.88499334
  WF centre and spread   15  (  1.025705,  0.701678, 17.546524 )     2.88470976
  WF centre and spread   16  (  1.025705,  0.701678, 17.546524 )     2.88470976
  WF centre and spread   17  (  3.077116,  1.776868, 14.680499 )     3.21419366
  WF centre and spread   18  (  3.077116,  1.776868, 14.680499 )     3.21419368
  WF centre and spread   19  (  3.077118,  1.829350, 14.666368 )     2.79959530
  WF centre and spread   20  (  3.077118,  1.829350, 14.666368 )     2.79959530
  WF centre and spread   21  (  3.077117,  1.722872, 14.666514 )     2.79918269
  WF centre and spread   22  (  3.077117,  1.722872, 14.666514 )     2.79918269
  Sum of centres and spreads ( 47.182344, 27.240408,316.522224 )    68.49713058

     10    -0.372E-02     0.1083161534       68.4971287946       0.65  <-- CONV
        O_D=      0.4132930 O_OD=      3.8884664 O_TOT=     68.4971288 <-- SPRD
 Delta: O_D=  0.6092003E-03 O_OD= -0.4332211E-02 O_TOT= -0.3723010E-02 <-- DLTA
 ------------------------------------------------------------------------------
 Cycle:     11
  WF centre and spread    1  (  5.128542,  2.961111, 15.954441 )     5.22783188
  WF centre and spread    2  (  5.128542,  2.961111, 15.954441 )     5.22783191
  WF centre and spread    3  (  3.077104,  1.776936, 12.240102 )     4.07712724
  WF centre and spread    4  (  3.077104,  1.776936, 12.240102 )     4.07712731
  WF centre and spread    5  (  1.025687,  0.592226, 10.989313 )     2.36684256
  WF centre and spread    6  (  1.025687,  0.592226, 10.989313 )     2.36684259
  WF centre and spread    7  (  1.025686,  0.675148, 11.137775 )     2.77382645
  WF centre and spread    8  (  1.025686,  0.675148, 11.137775 )     2.77382646
  WF centre and spread    9  (  1.025687,  0.507964, 11.137845 )     2.77338701
  WF centre and spread   10  (  1.025687,  0.507964, 11.137845 )     2.77338702
  WF centre and spread   11  (  1.025705,  0.591950, 17.694736 )     2.44761476
  WF centre and spread   12  (  1.025705,  0.591950, 17.694736 )     2.44761476
  WF centre and spread   13  (  1.025704,  0.483990, 17.546869 )     2.87744001
  WF centre and spread   14  (  1.025704,  0.483990, 17.546869 )     2.87744002
  WF centre and spread   15  (  1.025705,  0.701849, 17.546874 )     2.87724733
  WF centre and spread   16  (  1.025705,  0.701849, 17.546874 )     2.87724733
  WF centre and spread   17  (  3.077116,  1.776884, 14.680661 )     3.22298907
  WF centre and spread   18  (  3.077116,  1.776884, 14.680661 )     3.22298909
  WF centre and spread   19  (  3.077118,  1.829359, 14.666139 )     2.80171511
  WF centre and spread   20  (  3.077118,  1.829359, 14.666139 )     2.80171512
  WF centre and spread   21  (  3.077117,  1.722803, 14.666255 )     2.80135630
  WF centre and spread   22  (  3.077117,  1.722803, 14.666255 )     2.80135631
  Sum of centres and spreads ( 47.182344, 27.240442,316.522020 )    68.49475564

     11    -0.237E-02     0.0815717071       68.4947538485       0.73  <-- CONV
        O_D=      0.4137400 O_OD=      3.8856445 O_TOT=     68.4947538 <-- SPRD
 Delta: O_D=  0.4469567E-03 O_OD= -0.2821903E-02 O_TOT= -0.2374946E-02 <-- DLTA
 ------------------------------------------------------------------------------
 Cycle:     12
  WF centre and spread    1  (  5.128542,  2.961130, 15.954050 )     5.23270999
  WF centre and spread    2  (  5.128542,  2.961130, 15.954050 )     5.23271003
  WF centre and spread    3  (  3.077104,  1.776940, 12.240570 )     4.07456932
  WF centre and spread    4  (  3.077104,  1.776940, 12.240570 )     4.07456938
  WF centre and spread    5  (  1.025687,  0.592233, 10.989204 )     2.36758981
  WF centre and spread    6  (  1.025687,  0.592233, 10.989204 )     2.36758984
  WF centre and spread    7  (  1.025686,  0.675110, 11.137709 )     2.77271050
  WF centre and spread    8  (  1.025686,  0.675110, 11.137709 )     2.77271051
  WF centre and spread    9  (  1.025687,  0.508023, 11.137775 )     2.77232210
  WF centre and spread   10  (  1.025687,  0.508023, 11.137775 )     2.77232210
  WF centre and spread   11  (  1.025705,  0.591914, 17.694763 )     2.44716270
  WF centre and spread   12  (  1.025705,  0.591914, 17.694763 )     2.44716269
  WF centre and spread   13  (  1.025704,  0.483892, 17.547174 )     2.87099104
  WF centre and spread   14  (  1.025704,  0.483892, 17.547174 )     2.87099104
  WF centre and spread   15  (  1.025705,  0.701997, 17.547177 )     2.87088009
  WF centre and spread   16  (  1.025705,  0.701997, 17.547177 )     2.87088009
  WF centre and spread   17  (  3.077116,  1.776905, 14.680563 )     3.23103068
  WF centre and spread   18  (  3.077116,  1.776905, 14.680563 )     3.23103070
  WF centre and spread   19  (  3.077118,  1.829363, 14.665881 )     2.80344901
  WF centre and spread   20  (  3.077118,  1.829363, 14.665881 )     2.80344902
  WF centre and spread   21  (  3.077117,  1.722734, 14.665986 )     2.80320437
  WF centre and spread   22  (  3.077117,  1.722734, 14.665986 )     2.80320437
  Sum of centres and spreads ( 47.182344, 27.240481,316.521700 )    68.49323940

     12    -0.152E-02     0.0668989722       68.4932376107       0.81  <-- CONV
        O_D=      0.4139741 O_OD=      3.8838941 O_TOT=     68.4932376 <-- SPRD
 Delta: O_D=  0.2341676E-03 O_OD= -0.1750405E-02 O_TOT= -0.1516238E-02 <-- DLTA
 ------------------------------------------------------------------------------
 Cycle:     13
  WF centre and spread    1  (  5.128542,  2.961134, 15.953953 )     5.23208697
  WF centre and spread    2  (  5.128542,  2.961134, 15.953953 )     5.23208701
  WF centre and spread    3  (  3.077104,  1.776935, 12.240705 )     4.07406857
  WF centre and spread    4  (  3.077104,  1.776935, 12.240705 )     4.07406863
  WF centre and spread    5  (  1.025687,  0.592234, 10.989202 )     2.36793417
  WF centre and spread    6  (  1.025687,  0.592234, 10.989202 )     2.36793420
  WF centre and spread    7  (  1.025686,  0.675122, 11.137715 )     2.77283731
  WF centre and spread    8  (  1.025686,  0.675122, 11.137715 )     2.77283731
  WF centre and spread    9  (  1.025687,  0.508009, 11.137784 )     2.77249245
  WF centre and spread   10  (  1.025687,  0.508009, 11.137784 )     2.77249246
  WF centre and spread   11  (  1.025705,  0.591906, 17.694769 )     2.44709592
  WF centre and spread   12  (  1.025705,  0.591906, 17.694769 )     2.44709591
  WF centre and spread   13  (  1.025704,  0.483887, 17.547190 )     2.87066436
  WF centre and spread   14  (  1.025704,  0.483887, 17.547190 )     2.87066437
  WF centre and spread   15  (  1.025705,  0.702017, 17.547191 )     2.87055370
  WF centre and spread   16  (  1.025705,  0.702017, 17.547191 )     2.87055370
  WF centre and spread   17  (  3.077116,  1.776911, 14.680477 )     3.23168968
  WF centre and spread   18  (  3.077116,  1.776911, 14.680477 )     3.23168969
  WF centre and spread   19  (  3.077118,  1.829367, 14.665851 )     2.80358085
  WF centre and spread   20  (  3.077118,  1.829367, 14.665851 )     2.80358086
  WF centre and spread   21  (  3.077117,  1.722721, 14.665960 )     2.80336570
  WF centre and spread   22  (  3.077117,  1.722721, 14.665960 )     2.80336571
  Sum of centres and spreads ( 47.182344, 27.240484,316.521592 )    68.49273953

     13    -0.500E-03     0.0515053095       68.4927377434       0.90  <-- CONV
        O_D=      0.4139117 O_OD=      3.8834567 O_TOT=     68.4927377 <-- SPRD
 Delta: O_D= -0.6243546E-04 O_OD= -0.4374318E-03 O_TOT= -0.4998673E-03 <-- DLTA
 ------------------------------------------------------------------------------
 Cycle:     14
  WF centre and spread    1  (  5.128542,  2.961144, 15.953709 )     5.23097017
  WF centre and spread    2  (  5.128542,  2.961144, 15.953709 )     5.23097020
  WF centre and spread    3  (  3.077104,  1.776924, 12.241048 )     4.07279896
  WF centre and spread    4  (  3.077104,  1.776924, 12.241048 )     4.07279902
  WF centre and spread    5  (  1.025687,  0.592238, 10.989201 )     2.36873520
  WF centre and spread    6  (  1.025687,  0.592238, 10.989201 )     2.36873523
  WF centre and spread    7  (  1.025686,  0.675156, 11.137735 )     2.77310231
  WF centre and spread    8  (  1.025686,  0.675156, 11.137735 )     2.77310232
  WF centre and spread    9  (  1.025687,  0.507968, 11.137809 )     2.77285614
  WF centre and spread   10  (  1.025687,  0.507968, 11.137809 )     2.77285615
  WF centre and spread   11  (  1.025705,  0.591882, 17.694779 )     2.44696661
  WF centre and spread   12  (  1.025705,  0.591882, 17.694779 )     2.44696660
  WF centre and spread   13  (  1.025704,  0.483867, 17.547233 )     2.86976903
  WF centre and spread   14  (  1.025704,  0.483867, 17.547233 )     2.86976903
  WF centre and spread   15  (  1.025705,  0.702076, 17.547231 )     2.86966272
  WF centre and spread   16  (  1.025705,  0.702076, 17.547231 )     2.86966273
  WF centre and spread   17  (  3.077116,  1.776928, 14.680270 )     3.23354715
  WF centre and spread   18  (  3.077116,  1.776928, 14.680270 )     3.23354717
  WF centre and spread   19  (  3.077118,  1.829379, 14.665772 )     2.80394326
  WF centre and spread   20  (  3.077118,  1.829379, 14.665772 )     2.80394326
  WF centre and spread   21  (  3.077117,  1.722682, 14.665891 )     2.80381152
  WF centre and spread   22  (  3.077117,  1.722682, 14.665891 )     2.80381153
  Sum of centres and spreads ( 47.182344, 27.240487,316.521356 )    68.49232631

     14    -0.413E-03     0.0325811934       68.4923245244       0.96  <-- CONV
        O_D=      0.4137879 O_OD=      3.8831673 O_TOT=     68.4923245 <-- SPRD
 Delta: O_D= -0.1238450E-03 O_OD= -0.2893741E-03 O_TOT= -0.4132190E-03 <-- DLTA
 ------------------------------------------------------------------------------
 Cycle:     15
  WF centre and spread    1  (  5.128542,  2.961151, 15.953554 )     5.23085470
  WF centre and spread    2  (  5.128542,  2.961151, 15.953554 )     5.23085474
  WF centre and spread    3  (  3.077104,  1.776917, 12.241285 )     4.07180820
  WF centre and spread    4  (  3.077104,  1.776917, 12.241285 )     4.07180826
  WF centre and spread    5  (  1.025687,  0.592243, 10.989197 )     2.36910848
  WF centre and spread    6  (  1.025687,  0.592243, 10.989197 )     2.36910851
  WF centre and spread    7  (  1.025686,  0.675173, 11.137741 )     2.77313505
  WF centre and spread    8  (  1.025686,  0.675173, 11.137741 )     2.77313505
  WF centre and spread    9  (  1.025687,  0.507946, 11.137821 )     2.77294118
  WF centre and spread   10  (  1.025687,  0.507946, 11.137821 )     2.77294119
  WF centre and spread   11  (  1.025705,  0.591859, 17.694785 )     2.44687683
  WF centre and spread   12  (  1.025705,  0.591859, 17.694785 )     2.44687682
  WF centre and spread   13  (  1.025704,  0.483844, 17.547271 )     2.86892882
  WF centre and spread   14  (  1.025704,  0.483844, 17.547271 )     2.86892882
  WF centre and spread   15  (  1.025705,  0.702130, 17.547268 )     2.86883474
  WF centre and spread   16  (  1.025705,  0.702130, 17.547268 )     2.86883474
  WF centre and spread   17  (  3.077116,  1.776944, 14.680149 )     3.23518372
  WF centre and spread   18  (  3.077116,  1.776944, 14.680149 )     3.23518374
  WF centre and spread   19  (  3.077118,  1.829390, 14.665712 )     2.80423216
  WF centre and spread   20  (  3.077118,  1.829390, 14.665712 )     2.80423216
  WF centre and spread   21  (  3.077117,  1.722646, 14.665837 )     2.80417019
  WF centre and spread   22  (  3.077117,  1.722646, 14.665837 )     2.80417019
  Sum of centres and spreads ( 47.182344, 27.240488,316.521242 )    68.49214828

     15    -0.178E-03     0.0245107074       68.4921464862       1.02  <-- CONV
        O_D=      0.4136901 O_OD=      3.8830871 O_TOT=     68.4921465 <-- SPRD
 Delta: O_D= -0.9779852E-04 O_OD= -0.8023976E-04 O_TOT= -0.1780383E-03 <-- DLTA
 ------------------------------------------------------------------------------
 Cycle:     16
  WF centre and spread    1  (  5.128542,  2.961157, 15.953421 )     5.23149259
  WF centre and spread    2  (  5.128542,  2.961157, 15.953421 )     5.23149262
  WF centre and spread    3  (  3.077104,  1.776915, 12.241523 )     4.07065929
  WF centre and spread    4  (  3.077104,  1.776915, 12.241523 )     4.07065935
  WF centre and spread    5  (  1.025687,  0.592250, 10.989182 )     2.36929616
  WF centre and spread    6  (  1.025687,  0.592250, 10.989182 )     2.36929619
  WF centre and spread    7  (  1.025686,  0.675175, 11.137733 )     2.77295251
  WF centre and spread    8  (  1.025686,  0.675175, 11.137733 )     2.77295252
  WF centre and spread    9  (  1.025687,  0.507938, 11.137819 )     2.77280286
  WF centre and spread   10  (  1.025687,  0.507938, 11.137819 )     2.77280287
  WF centre and spread   11  (  1.025705,  0.591824, 17.694791 )     2.44677808
  WF centre and spread   12  (  1.025705,  0.591824, 17.694791 )     2.44677807
  WF centre and spread   13  (  1.025704,  0.483814, 17.547324 )     2.86772761
  WF centre and spread   14  (  1.025704,  0.483814, 17.547324 )     2.86772761
  WF centre and spread   15  (  1.025705,  0.702203, 17.547322 )     2.86765673
  WF centre and spread   16  (  1.025705,  0.702203, 17.547322 )     2.86765674
  WF centre and spread   17  (  3.077116,  1.776968, 14.680065 )     3.23740254
  WF centre and spread   18  (  3.077116,  1.776968, 14.680065 )     3.23740256
  WF centre and spread   19  (  3.077118,  1.829401, 14.665640 )     2.80460815
  WF centre and spread   20  (  3.077118,  1.829401, 14.665640 )     2.80460815
  WF centre and spread   21  (  3.077117,  1.722602, 14.665770 )     2.80462914
  WF centre and spread   22  (  3.077117,  1.722602, 14.665770 )     2.80462914
  Sum of centres and spreads ( 47.182344, 27.240495,316.521179 )    68.49201149

     16    -0.137E-03     0.0182887810       68.4920096977       1.11  <-- CONV
        O_D=      0.4136073 O_OD=      3.8830330 O_TOT=     68.4920097 <-- SPRD
 Delta: O_D= -0.8272462E-04 O_OD= -0.5406386E-04 O_TOT= -0.1367885E-03 <-- DLTA
 ------------------------------------------------------------------------------
 Cycle:     17
  WF centre and spread    1  (  5.128542,  2.961161, 15.953340 )     5.23225938
  WF centre and spread    2  (  5.128542,  2.961161, 15.953340 )     5.23225941
  WF centre and spread    3  (  3.077104,  1.776916, 12.241675 )     4.06980138
  WF centre and spread    4  (  3.077104,  1.776916, 12.241675 )     4.06980144
  WF centre and spread    5  (  1.025687,  0.592257, 10.989163 )     2.36941522
  WF centre and spread    6  (  1.025687,  0.592257, 10.989163 )     2.36941525
  WF centre and spread    7  (  1.025686,  0.675169, 11.137720 )     2.77265459
  WF centre and spread    8  (  1.025686,  0.675169, 11.137720 )     2.77265460
  WF centre and spread    9  (  1.025687,  0.507938, 11.137811 )     2.77253838
  WF centre and spread   10  (  1.025687,  0.507938, 11.137811 )     2.77253839
  WF centre and spread   11  (  1.025705,  0.591787, 17.694797 )     2.44669556
  WF centre and spread   12  (  1.025705,  0.591787, 17.694797 )     2.44669555
  WF centre and spread   13  (  1.025704,  0.483792, 17.547374 )     2.86664535
  WF centre and spread   14  (  1.025704,  0.483792, 17.547374 )     2.86664536
  WF centre and spread   15  (  1.025705,  0.702269, 17.547372 )     2.86658730
  WF centre and spread   16  (  1.025705,  0.702269, 17.547372 )     2.86658731
  WF centre and spread   17  (  3.077116,  1.776993, 14.680038 )     3.23938291
  WF centre and spread   18  (  3.077116,  1.776993, 14.680038 )     3.23938293
  WF centre and spread   19  (  3.077118,  1.829407, 14.665579 )     2.80495016
  WF centre and spread   20  (  3.077118,  1.829407, 14.665579 )     2.80495016
  WF centre and spread   21  (  3.077117,  1.722565, 14.665712 )     2.80503076
  WF centre and spread   22  (  3.077117,  1.722565, 14.665712 )     2.80503076
  Sum of centres and spreads ( 47.182344, 27.240506,316.521158 )    68.49192215

     17    -0.893E-04     0.0165232111       68.4919203563       1.16  <-- CONV
        O_D=      0.4136051 O_OD=      3.8829459 O_TOT=     68.4919204 <-- SPRD
 Delta: O_D= -0.2230949E-05 O_OD= -0.8711040E-04 O_TOT= -0.8934135E-04 <-- DLTA
 ------------------------------------------------------------------------------
 Cycle:     18
  WF centre and spread    1  (  5.128542,  2.961162, 15.953313 )     5.23272074
  WF centre and spread    2  (  5.128542,  2.961162, 15.953313 )     5.23272078
  WF centre and spread    3  (  3.077104,  1.776919, 12.241719 )     4.06932900
  WF centre and spread    4  (  3.077104,  1.776919, 12.241719 )     4.06932906
  WF centre and spread    5  (  1.025687,  0.592263, 10.989143 )     2.36957504
  WF centre and spread    6  (  1.025687,  0.592263, 10.989143 )     2.36957507
  WF centre and spread    7  (  1.025686,  0.675163, 11.137712 )     2.77234633
  WF centre and spread    8  (  1.025686,  0.675163, 11.137712 )     2.77234634
  WF centre and spread    9  (  1.025687,  0.507937, 11.137805 )     2.77225077
  WF centre and spread   10  (  1.025687,  0.507937, 11.137805 )     2.77225077
  WF centre and spread   11  (  1.025705,  0.591753, 17.694800 )     2.44664135
  WF centre and spread   12  (  1.025705,  0.591753, 17.694800 )     2.44664134
  WF centre and spread   13  (  1.025704,  0.483777, 17.547407 )     2.86592209
  WF centre and spread   14  (  1.025704,  0.483777, 17.547407 )     2.86592209
  WF centre and spread   15  (  1.025705,  0.702322, 17.547405 )     2.86585358
  WF centre and spread   16  (  1.025705,  0.702322, 17.547405 )     2.86585359
  WF centre and spread   17  (  3.077116,  1.777015, 14.680060 )     3.24076219
  WF centre and spread   18  (  3.077116,  1.777015, 14.680060 )     3.24076221
  WF centre and spread   19  (  3.077118,  1.829409, 14.665541 )     2.80521426
  WF centre and spread   20  (  3.077118,  1.829409, 14.665541 )     2.80521427
  WF centre and spread   21  (  3.077117,  1.722536, 14.665672 )     2.80532147
  WF centre and spread   22  (  3.077117,  1.722536, 14.665672 )     2.80532148
  Sum of centres and spreads ( 47.182344, 27.240513,316.521154 )    68.49187383

     18    -0.483E-04     0.0117974052       68.4918720384       1.23  <-- CONV
        O_D=      0.4136424 O_OD=      3.8828602 O_TOT=     68.4918720 <-- SPRD
 Delta: O_D=  0.3732243E-04 O_OD= -0.8564038E-04 O_TOT= -0.4831795E-04 <-- DLTA
 ------------------------------------------------------------------------------
 Cycle:     19
  WF centre and spread    1  (  5.128542,  2.961162, 15.953328 )     5.23260872
  WF centre and spread    2  (  5.128542,  2.961162, 15.953328 )     5.23260875
  WF centre and spread    3  (  3.077104,  1.776919, 12.241691 )     4.06932895
  WF centre and spread    4  (  3.077104,  1.776919, 12.241691 )     4.06932901
  WF centre and spread    5  (  1.025687,  0.592265, 10.989139 )     2.36963918
  WF centre and spread    6  (  1.025687,  0.592265, 10.989139 )     2.36963921
  WF centre and spread    7  (  1.025686,  0.675164, 11.137714 )     2.77228879
  WF centre and spread    8  (  1.025686,  0.675164, 11.137714 )     2.77228879
  WF centre and spread    9  (  1.025687,  0.507935, 11.137806 )     2.77219395
  WF centre and spread   10  (  1.025687,  0.507935, 11.137806 )     2.77219396
  WF centre and spread   11  (  1.025705,  0.591744, 17.694800 )     2.44663778
  WF centre and spread   12  (  1.025705,  0.591744, 17.694800 )     2.44663777
  WF centre and spread   13  (  1.025704,  0.483776, 17.547406 )     2.86591968
  WF centre and spread   14  (  1.025704,  0.483776, 17.547406 )     2.86591969
  WF centre and spread   15  (  1.025705,  0.702332, 17.547405 )     2.86583932
  WF centre and spread   16  (  1.025705,  0.702332, 17.547405 )     2.86583933
  WF centre and spread   17  (  3.077116,  1.777020, 14.680080 )     3.24084921
  WF centre and spread   18  (  3.077116,  1.777020, 14.680080 )     3.24084922
  WF centre and spread   19  (  3.077118,  1.829408, 14.665540 )     2.80525689
  WF centre and spread   20  (  3.077118,  1.829408, 14.665540 )     2.80525690
  WF centre and spread   21  (  3.077117,  1.722532, 14.665669 )     2.80535871
  WF centre and spread   22  (  3.077117,  1.722532, 14.665669 )     2.80535871
  Sum of centres and spreads ( 47.182344, 27.240513,316.521157 )    68.49184251

     19    -0.313E-04     0.0121308780       68.4918407214       1.29  <-- CONV
        O_D=      0.4136424 O_OD=      3.8828290 O_TOT=     68.4918407 <-- SPRD
 Delta: O_D= -0.7897576E-07 O_OD= -0.3123802E-04 O_TOT= -0.3131700E-04 <-- DLTA
 ------------------------------------------------------------------------------
 Cycle:     20
  WF centre and spread    1  (  5.128542,  2.961159, 15.953377 )     5.23228078
  WF centre and spread    2  (  5.128542,  2.961159, 15.953377 )     5.23228081
  WF centre and spread    3  (  3.077104,  1.776922, 12.241604 )     4.06930035
  WF centre and spread    4  (  3.077104,  1.776922, 12.241604 )     4.06930041
  WF centre and spread    5  (  1.025687,  0.592271, 10.989124 )     2.36982863
  WF centre and spread    6  (  1.025687,  0.592271, 10.989124 )     2.36982866
  WF centre and spread    7  (  1.025686,  0.675164, 11.137718 )     2.77208393
  WF centre and spread    8  (  1.025686,  0.675164, 11.137718 )     2.77208394
  WF centre and spread    9  (  1.025687,  0.507929, 11.137807 )     2.77199372
  WF centre and spread   10  (  1.025687,  0.507929, 11.137807 )     2.77199373
  WF centre and spread   11  (  1.025705,  0.591711, 17.694799 )     2.44662153
  WF centre and spread   12  (  1.025705,  0.591711, 17.694799 )     2.44662152
  WF centre and spread   13  (  1.025704,  0.483774, 17.547407 )     2.86590375
  WF centre and spread   14  (  1.025704,  0.483774, 17.547407 )     2.86590375
  WF centre and spread   15  (  1.025705,  0.702368, 17.547405 )     2.86578708
  WF centre and spread   16  (  1.025705,  0.702368, 17.547405 )     2.86578708
  WF centre and spread   17  (  3.077116,  1.777039, 14.680148 )     3.24119450
  WF centre and spread   18  (  3.077116,  1.777039, 14.680148 )     3.24119452
  WF centre and spread   19  (  3.077118,  1.829404, 14.665537 )     2.80541131
  WF centre and spread   20  (  3.077118,  1.829404, 14.665537 )     2.80541132
  WF centre and spread   21  (  3.077117,  1.722516, 14.665660 )     2.80549583
  WF centre and spread   22  (  3.077117,  1.722516, 14.665660 )     2.80549584
  Sum of centres and spreads ( 47.182344, 27.240515,316.521174 )    68.49180297

     20    -0.395E-04     0.0086928185       68.4918011845       1.35  <-- CONV
        O_D=      0.4136634 O_OD=      3.8827684 O_TOT=     68.4918012 <-- SPRD
 Delta: O_D=  0.2105779E-04 O_OD= -0.6059469E-04 O_TOT= -0.3953689E-04 <-- DLTA
 ------------------------------------------------------------------------------
 Cycle:     21
  WF centre and spread    1  (  5.128542,  2.961157, 15.953436 )     5.23200846
  WF centre and spread    2  (  5.128542,  2.961157, 15.953436 )     5.23200850
  WF centre and spread    3  (  3.077104,  1.776927, 12.241518 )     4.06918426
  WF centre and spread    4  (  3.077104,  1.776927, 12.241518 )     4.06918433
  WF centre and spread    5  (  1.025687,  0.592281, 10.989105 )     2.36998344
  WF centre and spread    6  (  1.025687,  0.592281, 10.989105 )     2.36998347
  WF centre and spread    7  (  1.025686,  0.675160, 11.137718 )     2.77181995
  WF centre and spread    8  (  1.025686,  0.675160, 11.137718 )     2.77181996
  WF centre and spread    9  (  1.025687,  0.507923, 11.137805 )     2.77173653
  WF centre and spread   10  (  1.025687,  0.507923, 11.137805 )     2.77173653
  WF centre and spread   11  (  1.025705,  0.591663, 17.694800 )     2.44659707
  WF centre and spread   12  (  1.025705,  0.591663, 17.694800 )     2.44659707
  WF centre and spread   13  (  1.025704,  0.483771, 17.547409 )     2.86585014
  WF centre and spread   14  (  1.025704,  0.483771, 17.547409 )     2.86585014
  WF centre and spread   15  (  1.025705,  0.702421, 17.547408 )     2.86569404
  WF centre and spread   16  (  1.025705,  0.702421, 17.547408 )     2.86569404
  WF centre and spread   17  (  3.077116,  1.777067, 14.680227 )     3.24172168
  WF centre and spread   18  (  3.077116,  1.777067, 14.680227 )     3.24172169
  WF centre and spread   19  (  3.077118,  1.829400, 14.665532 )     2.80560975
  WF centre and spread   20  (  3.077118,  1.829400, 14.665532 )     2.80560975
  WF centre and spread   21  (  3.077117,  1.722490, 14.665648 )     2.80567695
  WF centre and spread   22  (  3.077117,  1.722490, 14.665648 )     2.80567695
  Sum of centres and spreads ( 47.182344, 27.240519,316.521211 )    68.49176471

     21    -0.383E-04     0.0097729812       68.4917629179       1.42  <-- CONV
        O_D=      0.4137026 O_OD=      3.8826910 O_TOT=     68.4917629 <-- SPRD
 Delta: O_D=  0.3918415E-04 O_OD= -0.7745070E-04 O_TOT= -0.3826656E-04 <-- DLTA
 ------------------------------------------------------------------------------
 Cycle:     22
  WF centre and spread    1  (  5.128542,  2.961154, 15.953496 )     5.23195380
  WF centre and spread    2  (  5.128542,  2.961154, 15.953496 )     5.23195383
  WF centre and spread    3  (  3.077104,  1.776932, 12.241460 )     4.06886513
  WF centre and spread    4  (  3.077104,  1.776932, 12.241460 )     4.06886520
  WF centre and spread    5  (  1.025687,  0.592296, 10.989081 )     2.37003369
  WF centre and spread    6  (  1.025687,  0.592296, 10.989081 )     2.37003372
  WF centre and spread    7  (  1.025686,  0.675152, 11.137711 )     2.77148618
  WF centre and spread    8  (  1.025686,  0.675152, 11.137711 )     2.77148619
  WF centre and spread    9  (  1.025687,  0.507919, 11.137796 )     2.77140656
  WF centre and spread   10  (  1.025687,  0.507919, 11.137796 )     2.77140657
  WF centre and spread   11  (  1.025705,  0.591581, 17.694805 )     2.44655771
  WF centre and spread   12  (  1.025705,  0.591581, 17.694805 )     2.44655770
  WF centre and spread   13  (  1.025704,  0.483764, 17.547414 )     2.86571324
  WF centre and spread   14  (  1.025704,  0.483764, 17.547414 )     2.86571324
  WF centre and spread   15  (  1.025705,  0.702513, 17.547415 )     2.86551052
  WF centre and spread   16  (  1.025705,  0.702513, 17.547415 )     2.86551052
  WF centre and spread   17  (  3.077116,  1.777116, 14.680311 )     3.24256925
  WF centre and spread   18  (  3.077116,  1.777116, 14.680311 )     3.24256927
  WF centre and spread   19  (  3.077118,  1.829396, 14.665522 )     2.80585285
  WF centre and spread   20  (  3.077118,  1.829396, 14.665522 )     2.80585286
  WF centre and spread   21  (  3.077117,  1.722441, 14.665630 )     2.80591008
  WF centre and spread   22  (  3.077117,  1.722441, 14.665630 )     2.80591009
  Sum of centres and spreads ( 47.182344, 27.240527,316.521280 )    68.49171817

     22    -0.465E-04     0.0093042165       68.4917163813       1.50  <-- CONV
        O_D=      0.4137316 O_OD=      3.8826155 O_TOT=     68.4917164 <-- SPRD
 Delta: O_D=  0.2896172E-04 O_OD= -0.7549835E-04 O_TOT= -0.4653662E-04 <-- DLTA
 ------------------------------------------------------------------------------
 Cycle:     23
  WF centre and spread    1  (  5.128542,  2.961152, 15.953571 )     5.23211840
  WF centre and spread    2  (  5.128542,  2.961152, 15.953571 )     5.23211843
  WF centre and spread    3  (  3.077104,  1.776938, 12.241437 )     4.06807632
  WF centre and spread    4  (  3.077104,  1.776938, 12.241437 )     4.06807638
  WF centre and spread    5  (  1.025687,  0.592332, 10.989042 )     2.37001649
  WF centre and spread    6  (  1.025687,  0.592332, 10.989042 )     2.37001652
  WF centre and spread    7  (  1.025686,  0.675140, 11.137699 )     2.77092094
  WF centre and spread    8  (  1.025686,  0.675140, 11.137699 )     2.77092095
  WF centre and spread    9  (  1.025687,  0.507900, 11.137780 )     2.77084223
  WF centre and spread   10  (  1.025687,  0.507900, 11.137780 )     2.77084224
  WF centre and spread   11  (  1.025705,  0.591395, 17.694819 )     2.44646272
  WF centre and spread   12  (  1.025705,  0.591395, 17.694819 )     2.44646271
  WF centre and spread   13  (  1.025704,  0.483748, 17.547425 )     2.86540112
  WF centre and spread   14  (  1.025704,  0.483748, 17.547425 )     2.86540112
  WF centre and spread   15  (  1.025705,  0.702721, 17.547430 )     2.86510681
  WF centre and spread   16  (  1.025705,  0.702721, 17.547430 )     2.86510681
  WF centre and spread   17  (  3.077116,  1.777229, 14.680415 )     3.24430090
  WF centre and spread   18  (  3.077116,  1.777229, 14.680415 )     3.24430091
  WF centre and spread   19  (  3.077118,  1.829394, 14.665497 )     2.80625339
  WF centre and spread   20  (  3.077118,  1.829394, 14.665497 )     2.80625340
  WF centre and spread   21  (  3.077117,  1.722321, 14.665592 )     2.80631377
  WF centre and spread   22  (  3.077117,  1.722321, 14.665592 )     2.80631378
  Sum of centres and spreads ( 47.182344, 27.240540,316.521417 )    68.49162636

     23    -0.918E-04     0.0122780417       68.4916245749       1.67  <-- CONV
        O_D=      0.4137167 O_OD=      3.8825385 O_TOT=     68.4916246 <-- SPRD
 Delta: O_D= -0.1486840E-04 O_OD= -0.7693799E-04 O_TOT= -0.9180640E-04 <-- DLTA
 ------------------------------------------------------------------------------
 Cycle:     24
  WF centre and spread    1  (  5.128542,  2.961152, 15.953606 )     5.23216523
  WF centre and spread    2  (  5.128542,  2.961152, 15.953606 )     5.23216526
  WF centre and spread    3  (  3.077104,  1.776942, 12.241522 )     4.06702848
  WF centre and spread    4  (  3.077104,  1.776942, 12.241522 )     4.06702855
  WF centre and spread    5  (  1.025687,  0.592385, 10.989007 )     2.37007641
  WF centre and spread    6  (  1.025687,  0.592385, 10.989007 )     2.37007644
  WF centre and spread    7  (  1.025686,  0.675135, 11.137692 )     2.77039205
  WF centre and spread    8  (  1.025686,  0.675135, 11.137692 )     2.77039206
  WF centre and spread    9  (  1.025687,  0.507855, 11.137771 )     2.77032811
  WF centre and spread   10  (  1.025687,  0.507855, 11.137771 )     2.77032812
  WF centre and spread   11  (  1.025705,  0.591121, 17.694840 )     2.44630229
  WF centre and spread   12  (  1.025705,  0.591121, 17.694840 )     2.44630229
  WF centre and spread   13  (  1.025704,  0.483730, 17.547435 )     2.86504592
  WF centre and spread   14  (  1.025704,  0.483730, 17.547435 )     2.86504592
  WF centre and spread   15  (  1.025705,  0.703025, 17.547446 )     2.86462733
  WF centre and spread   16  (  1.025705,  0.703025, 17.547446 )     2.86462733
  WF centre and spread   17  (  3.077116,  1.777399, 14.680458 )     3.24638055
  WF centre and spread   18  (  3.077116,  1.777399, 14.680458 )     3.24638057
  WF centre and spread   19  (  3.077118,  1.829395, 14.665454 )     2.80665713
  WF centre and spread   20  (  3.077118,  1.829395, 14.665454 )     2.80665714
  WF centre and spread   21  (  3.077117,  1.722139, 14.665539 )     2.80674695
  WF centre and spread   22  (  3.077117,  1.722139, 14.665539 )     2.80674696
  Sum of centres and spreads ( 47.182344, 27.240554,316.521540 )    68.49150107

     24    -0.125E-03     0.0154430256       68.4914992779       1.76  <-- CONV
        O_D=      0.4136188 O_OD=      3.8825111 O_TOT=     68.4914993 <-- SPRD
 Delta: O_D= -0.9785889E-04 O_OD= -0.2743809E-04 O_TOT= -0.1252970E-03 <-- DLTA
 ------------------------------------------------------------------------------
 Cycle:     25
  WF centre and spread    1  (  5.128542,  2.961154, 15.953577 )     5.23199858
  WF centre and spread    2  (  5.128542,  2.961154, 15.953577 )     5.23199861
  WF centre and spread    3  (  3.077104,  1.776940, 12.241560 )     4.06709078
  WF centre and spread    4  (  3.077104,  1.776940, 12.241560 )     4.06709085
  WF centre and spread    5  (  1.025687,  0.592386, 10.989013 )     2.37013504
  WF centre and spread    6  (  1.025687,  0.592386, 10.989013 )     2.37013507
  WF centre and spread    7  (  1.025686,  0.675139, 11.137696 )     2.77050888
  WF centre and spread    8  (  1.025686,  0.675139, 11.137696 )     2.77050889
  WF centre and spread    9  (  1.025687,  0.507847, 11.137775 )     2.77045461
  WF centre and spread   10  (  1.025687,  0.507847, 11.137775 )     2.77045462
  WF centre and spread   11  (  1.025705,  0.591113, 17.694840 )     2.44627695
  WF centre and spread   12  (  1.025705,  0.591113, 17.694840 )     2.44627694
  WF centre and spread   13  (  1.025704,  0.483731, 17.547431 )     2.86510729
  WF centre and spread   14  (  1.025704,  0.483731, 17.547431 )     2.86510729
  WF centre and spread   15  (  1.025705,  0.703031, 17.547442 )     2.86469284
  WF centre and spread   16  (  1.025705,  0.703031, 17.547442 )     2.86469285
  WF centre and spread   17  (  3.077116,  1.777405, 14.680422 )     3.24616261
  WF centre and spread   18  (  3.077116,  1.777405, 14.680422 )     3.24616263
  WF centre and spread   19  (  3.077118,  1.829396, 14.665453 )     2.80658696
  WF centre and spread   20  (  3.077118,  1.829396, 14.665453 )     2.80658697
  WF centre and spread   21  (  3.077117,  1.722133, 14.665542 )     2.80668307
  WF centre and spread   22  (  3.077117,  1.722133, 14.665542 )     2.80668308
  Sum of centres and spreads ( 47.182344, 27.240553,316.521503 )    68.49139540

     25    -0.106E-03     0.0244009100       68.4913936144       1.82  <-- CONV
        O_D=      0.4136001 O_OD=      3.8824241 O_TOT=     68.4913936 <-- SPRD
 Delta: O_D= -0.1868716E-04 O_OD= -0.8697635E-04 O_TOT= -0.1056635E-03 <-- DLTA
 ------------------------------------------------------------------------------
 Cycle:     26
  WF centre and spread    1  (  5.128542,  2.961157, 15.953500 )     5.23172490
  WF centre and spread    2  (  5.128542,  2.961157, 15.953500 )     5.23172493
  WF centre and spread    3  (  3.077104,  1.776935, 12.241652 )     4.06724706
  WF centre and spread    4  (  3.077104,  1.776935, 12.241652 )     4.06724712
  WF centre and spread    5  (  1.025687,  0.592390, 10.989031 )     2.37023047
  WF centre and spread    6  (  1.025687,  0.592390, 10.989031 )     2.37023050
  WF centre and spread    7  (  1.025686,  0.675152, 11.137706 )     2.77082109
  WF centre and spread    8  (  1.025686,  0.675152, 11.137706 )     2.77082109
  WF centre and spread    9  (  1.025687,  0.507825, 11.137789 )     2.77078449
  WF centre and spread   10  (  1.025687,  0.507825, 11.137789 )     2.77078450
  WF centre and spread   11  (  1.025705,  0.591092, 17.694842 )     2.44622508
  WF centre and spread   12  (  1.025705,  0.591092, 17.694842 )     2.44622507
  WF centre and spread   13  (  1.025704,  0.483735, 17.547421 )     2.86527030
  WF centre and spread   14  (  1.025704,  0.483735, 17.547421 )     2.86527030
  WF centre and spread   15  (  1.025705,  0.703051, 17.547431 )     2.86486720
  WF centre and spread   16  (  1.025705,  0.703051, 17.547431 )     2.86486720
  WF centre and spread   17  (  3.077116,  1.777419, 14.680332 )     3.24559192
  WF centre and spread   18  (  3.077116,  1.777419, 14.680332 )     3.24559194
  WF centre and spread   19  (  3.077118,  1.829400, 14.665454 )     2.80639191
  WF centre and spread   20  (  3.077118,  1.829400, 14.665454 )     2.80639192
  WF centre and spread   21  (  3.077117,  1.722117, 14.665551 )     2.80650463
  WF centre and spread   22  (  3.077117,  1.722117, 14.665551 )     2.80650463
  Sum of centres and spreads ( 47.182344, 27.240547,316.521417 )    68.49131825

     26    -0.772E-04     0.0141124970       68.4913164553       1.89  <-- CONV
        O_D=      0.4135553 O_OD=      3.8823918 O_TOT=     68.4913165 <-- SPRD
 Delta: O_D= -0.4487745E-04 O_OD= -0.3228171E-04 O_TOT= -0.7715916E-04 <-- DLTA
 ------------------------------------------------------------------------------
 Cycle:     27
  WF centre and spread    1  (  5.128542,  2.961160, 15.953438 )     5.23172136
  WF centre and spread    2  (  5.128542,  2.961160, 15.953438 )     5.23172139
  WF centre and spread    3  (  3.077104,  1.776931, 12.241720 )     4.06737296
  WF centre and spread    4  (  3.077104,  1.776931, 12.241720 )     4.06737302
  WF centre and spread    5  (  1.025687,  0.592395, 10.989048 )     2.37018635
  WF centre and spread    6  (  1.025687,  0.592395, 10.989048 )     2.37018638
  WF centre and spread    7  (  1.025686,  0.675161, 11.137715 )     2.77111286
  WF centre and spread    8  (  1.025686,  0.675161, 11.137715 )     2.77111286
  WF centre and spread    9  (  1.025687,  0.507807, 11.137801 )     2.77107905
  WF centre and spread   10  (  1.025687,  0.507807, 11.137801 )     2.77107906
  WF centre and spread   11  (  1.025705,  0.591067, 17.694844 )     2.44618146
  WF centre and spread   12  (  1.025705,  0.591067, 17.694844 )     2.44618145
  WF centre and spread   13  (  1.025704,  0.483736, 17.547412 )     2.86541573
  WF centre and spread   14  (  1.025704,  0.483736, 17.547412 )     2.86541573
  WF centre and spread   15  (  1.025705,  0.703074, 17.547421 )     2.86502550
  WF centre and spread   16  (  1.025705,  0.703074, 17.547421 )     2.86502550
  WF centre and spread   17  (  3.077116,  1.777437, 14.680257 )     3.24503778
  WF centre and spread   18  (  3.077116,  1.777437, 14.680257 )     3.24503780
  WF centre and spread   19  (  3.077118,  1.829405, 14.665459 )     2.80618899
  WF centre and spread   20  (  3.077118,  1.829405, 14.665459 )     2.80618900
  WF centre and spread   21  (  3.077117,  1.722098, 14.665563 )     2.80631588
  WF centre and spread   22  (  3.077117,  1.722098, 14.665563 )     2.80631588
  Sum of centres and spreads ( 47.182344, 27.240542,316.521357 )    68.49127601

     27    -0.422E-04     0.0113337249       68.4912742163       1.95  <-- CONV
        O_D=      0.4135043 O_OD=      3.8824005 O_TOT=     68.4912742 <-- SPRD
 Delta: O_D= -0.5095573E-04 O_OD=  0.8716820E-05 O_TOT= -0.4223891E-04 <-- DLTA
 ------------------------------------------------------------------------------
 Cycle:     28
  WF centre and spread    1  (  5.128542,  2.961163, 15.953374 )     5.23201003
  WF centre and spread    2  (  5.128542,  2.961163, 15.953374 )     5.23201006
  WF centre and spread    3  (  3.077104,  1.776928, 12.241782 )     4.06756907
  WF centre and spread    4  (  3.077104,  1.776928, 12.241782 )     4.06756914
  WF centre and spread    5  (  1.025687,  0.592404, 10.989069 )     2.36993740
  WF centre and spread    6  (  1.025687,  0.592404, 10.989069 )     2.36993743
  WF centre and spread    7  (  1.025686,  0.675166, 11.137720 )     2.77151056
  WF centre and spread    8  (  1.025686,  0.675166, 11.137720 )     2.77151057
  WF centre and spread    9  (  1.025687,  0.507788, 11.137810 )     2.77146280
  WF centre and spread   10  (  1.025687,  0.507788, 11.137810 )     2.77146281
  WF centre and spread   11  (  1.025705,  0.591021, 17.694849 )     2.44612949
  WF centre and spread   12  (  1.025705,  0.591021, 17.694849 )     2.44612948
  WF centre and spread   13  (  1.025704,  0.483739, 17.547401 )     2.86561542
  WF centre and spread   14  (  1.025704,  0.483739, 17.547401 )     2.86561543
  WF centre and spread   15  (  1.025705,  0.703116, 17.547411 )     2.86524536
  WF centre and spread   16  (  1.025705,  0.703116, 17.547411 )     2.86524536
  WF centre and spread   17  (  3.077116,  1.777467, 14.680177 )     3.24420490
  WF centre and spread   18  (  3.077116,  1.777467, 14.680177 )     3.24420491
  WF centre and spread   19  (  3.077118,  1.829409, 14.665472 )     2.80589529
[...]
  WF centre and spread   15  (  1.025705,  0.706852, 17.547468 )     2.86518273
  WF centre and spread   16  (  1.025705,  0.706852, 17.547468 )     2.86518274
  WF centre and spread   17  (  3.077116,  1.779958, 14.680224 )     3.24233350
  WF centre and spread   18  (  3.077116,  1.779958, 14.680224 )     3.24233352
  WF centre and spread   19  (  3.077118,  1.829401, 14.665513 )     2.80576620
  WF centre and spread   20  (  3.077118,  1.829401, 14.665513 )     2.80576621
  WF centre and spread   21  (  3.077117,  1.719557, 14.665625 )     2.80592949
  WF centre and spread   22  (  3.077117,  1.719557, 14.665625 )     2.80592950
  Sum of centres and spreads ( 47.182344, 27.240566,316.521248 )    68.48830073

     93    -0.302E-04     0.0084099073       68.4882989372       6.73  <-- CONV
        O_D=      0.4127305 O_OD=      3.8801991 O_TOT=     68.4882989 <-- SPRD
 Delta: O_D=  0.6119502E-05 O_OD= -0.3634404E-04 O_TOT= -0.3022454E-04 <-- DLTA
 ------------------------------------------------------------------------------
 Cycle:     94
  WF centre and spread    1  (  5.128542,  2.961164, 15.953458 )     5.23199185
  WF centre and spread    2  (  5.128542,  2.961164, 15.953458 )     5.23199188
  WF centre and spread    3  (  3.077104,  1.776938, 12.241582 )     4.06857740
  WF centre and spread    4  (  3.077104,  1.776938, 12.241582 )     4.06857746
  WF centre and spread    5  (  1.025687,  0.593106, 10.988949 )     2.36827410
  WF centre and spread    6  (  1.025687,  0.593106, 10.988949 )     2.36827413
  WF centre and spread    7  (  1.025686,  0.675189, 11.137794 )     2.77235768
  WF centre and spread    8  (  1.025686,  0.675189, 11.137794 )     2.77235769
  WF centre and spread    9  (  1.025687,  0.507039, 11.137839 )     2.77193229
  WF centre and spread   10  (  1.025687,  0.507039, 11.137839 )     2.77193230
  WF centre and spread   11  (  1.025705,  0.587391, 17.694904 )     2.44430609
  WF centre and spread   12  (  1.025705,  0.587391, 17.694904 )     2.44430608
  WF centre and spread   13  (  1.025704,  0.483638, 17.547230 )     2.86734790
  WF centre and spread   14  (  1.025704,  0.483638, 17.547230 )     2.86734791
  WF centre and spread   15  (  1.025705,  0.706906, 17.547464 )     2.86534225
  WF centre and spread   16  (  1.025705,  0.706906, 17.547464 )     2.86534226
  WF centre and spread   17  (  3.077116,  1.780001, 14.680287 )     3.24219749
  WF centre and spread   18  (  3.077116,  1.780001, 14.680287 )     3.24219751
  WF centre and spread   19  (  3.077118,  1.829399, 14.665524 )     2.80583340
  WF centre and spread   20  (  3.077118,  1.829399, 14.665524 )     2.80583340
  WF centre and spread   21  (  3.077117,  1.719514, 14.665626 )     2.80597394
  WF centre and spread   22  (  3.077117,  1.719514, 14.665626 )     2.80597394
  Sum of centres and spreads ( 47.182344, 27.240569,316.521317 )    68.48826894

     94    -0.318E-04     0.0081797178       68.4882671531       6.80  <-- CONV
        O_D=      0.4127184 O_OD=      3.8801794 O_TOT=     68.4882672 <-- SPRD
 Delta: O_D= -0.1210671E-04 O_OD= -0.1967736E-04 O_TOT= -0.3178407E-04 <-- DLTA
 ------------------------------------------------------------------------------
 Cycle:     95
  WF centre and spread    1  (  5.128542,  2.961162, 15.953477 )     5.23198379
  WF centre and spread    2  (  5.128542,  2.961162, 15.953477 )     5.23198382
  WF centre and spread    3  (  3.077104,  1.776941, 12.241560 )     4.06849337
  WF centre and spread    4  (  3.077104,  1.776941, 12.241560 )     4.06849343
  WF centre and spread    5  (  1.025687,  0.593128, 10.988937 )     2.36814691
  WF centre and spread    6  (  1.025687,  0.593128, 10.988937 )     2.36814695
  WF centre and spread    7  (  1.025686,  0.675171, 11.137793 )     2.77228129
  WF centre and spread    8  (  1.025686,  0.675171, 11.137793 )     2.77228130
  WF centre and spread    9  (  1.025687,  0.507039, 11.137827 )     2.77183032
  WF centre and spread   10  (  1.025687,  0.507038, 11.137827 )     2.77183032
  WF centre and spread   11  (  1.025705,  0.587279, 17.694901 )     2.44429859
  WF centre and spread   12  (  1.025705,  0.587279, 17.694900 )     2.44429858
  WF centre and spread   13  (  1.025704,  0.483639, 17.547218 )     2.86757562
  WF centre and spread   14  (  1.025704,  0.483639, 17.547218 )     2.86757563
  WF centre and spread   15  (  1.025705,  0.707016, 17.547465 )     2.86551585
  WF centre and spread   16  (  1.025705,  0.707016, 17.547465 )     2.86551586
  WF centre and spread   17  (  3.077116,  1.780087, 14.680352 )     3.24210390
  WF centre and spread   18  (  3.077116,  1.780087, 14.680352 )     3.24210391
  WF centre and spread   19  (  3.077118,  1.829399, 14.665540 )     2.80587498
  WF centre and spread   20  (  3.077118,  1.829399, 14.665540 )     2.80587499
  WF centre and spread   21  (  3.077117,  1.719426, 14.665629 )     2.80600379
  WF centre and spread   22  (  3.077117,  1.719426, 14.665629 )     2.80600380
  Sum of centres and spreads ( 47.182344, 27.240573,316.521397 )    68.48821701

     95    -0.519E-04     0.0095837139       68.4882152182       6.86  <-- CONV
        O_D=      0.4126732 O_OD=      3.8801726 O_TOT=     68.4882152 <-- SPRD
 Delta: O_D= -0.4512110E-04 O_OD= -0.6813781E-05 O_TOT= -0.5193488E-04 <-- DLTA
 ------------------------------------------------------------------------------
 Cycle:     96
  WF centre and spread    1  (  5.128542,  2.961161, 15.953477 )     5.23200994
  WF centre and spread    2  (  5.128542,  2.961161, 15.953477 )     5.23200997
  WF centre and spread    3  (  3.077104,  1.776942, 12.241560 )     4.06841854
  WF centre and spread    4  (  3.077104,  1.776942, 12.241560 )     4.06841860
  WF centre and spread    5  (  1.025687,  0.593160, 10.988932 )     2.36802802
  WF centre and spread    6  (  1.025687,  0.593160, 10.988932 )     2.36802805
  WF centre and spread    7  (  1.025686,  0.675164, 11.137797 )     2.77231204
  WF centre and spread    8  (  1.025686,  0.675164, 11.137797 )     2.77231205
  WF centre and spread    9  (  1.025687,  0.507013, 11.137824 )     2.77183737
  WF centre and spread   10  (  1.025687,  0.507013, 11.137824 )     2.77183738
  WF centre and spread   11  (  1.025705,  0.587113, 17.694894 )     2.44425418
  WF centre and spread   12  (  1.025705,  0.587113, 17.694894 )     2.44425417
  WF centre and spread   13  (  1.025704,  0.483637, 17.547207 )     2.86775001
  WF centre and spread   14  (  1.025704,  0.483637, 17.547207 )     2.86775001
  WF centre and spread   15  (  1.025705,  0.707186, 17.547472 )     2.86560239
  WF centre and spread   16  (  1.025705,  0.707186, 17.547472 )     2.86560239
  WF centre and spread   17  (  3.077116,  1.780217, 14.680370 )     3.24203125
  WF centre and spread   18  (  3.077116,  1.780217, 14.680370 )     3.24203127
  WF centre and spread   19  (  3.077118,  1.829400, 14.665549 )     2.80584293
  WF centre and spread   20  (  3.077118,  1.829400, 14.665549 )     2.80584294
  WF centre and spread   21  (  3.077117,  1.719294, 14.665634 )     2.80598715
  WF centre and spread   22  (  3.077117,  1.719294, 14.665634 )     2.80598715
  Sum of centres and spreads ( 47.182344, 27.240575,316.521433 )    68.48814782

     96    -0.692E-04     0.0116391519       68.4881460257       7.04  <-- CONV
        O_D=      0.4126162 O_OD=      3.8801605 O_TOT=     68.4881460 <-- SPRD
 Delta: O_D= -0.5702773E-04 O_OD= -0.1216482E-04 O_TOT= -0.6919255E-04 <-- DLTA
 ------------------------------------------------------------------------------
 Cycle:     97
  WF centre and spread    1  (  5.128542,  2.961162, 15.953469 )     5.23197568
  WF centre and spread    2  (  5.128542,  2.961162, 15.953469 )     5.23197572
  WF centre and spread    3  (  3.077104,  1.776941, 12.241574 )     4.06846188
  WF centre and spread    4  (  3.077104,  1.776941, 12.241574 )     4.06846194
  WF centre and spread    5  (  1.025687,  0.593161, 10.988936 )     2.36806911
  WF centre and spread    6  (  1.025687,  0.593161, 10.988936 )     2.36806914
  WF centre and spread    7  (  1.025686,  0.675171, 11.137799 )     2.77235791
  WF centre and spread    8  (  1.025686,  0.675171, 11.137799 )     2.77235791
  WF centre and spread    9  (  1.025687,  0.507003, 11.137829 )     2.77189020
  WF centre and spread   10  (  1.025687,  0.507003, 11.137829 )     2.77189021
  WF centre and spread   11  (  1.025705,  0.587107, 17.694894 )     2.44423742
  WF centre and spread   12  (  1.025705,  0.587107, 17.694894 )     2.44423741
  WF centre and spread   13  (  1.025704,  0.483636, 17.547209 )     2.86769089
  WF centre and spread   14  (  1.025704,  0.483636, 17.547209 )     2.86769089
  WF centre and spread   15  (  1.025705,  0.707195, 17.547475 )     2.86553607
  WF centre and spread   16  (  1.025705,  0.707195, 17.547475 )     2.86553607
  WF centre and spread   17  (  3.077116,  1.780223, 14.680341 )     3.24203939
  WF centre and spread   18  (  3.077116,  1.780223, 14.680341 )     3.24203941
  WF centre and spread   19  (  3.077118,  1.829401, 14.665543 )     2.80581316
  WF centre and spread   20  (  3.077118,  1.829401, 14.665543 )     2.80581316
  WF centre and spread   21  (  3.077117,  1.719288, 14.665633 )     2.80596840
  WF centre and spread   22  (  3.077117,  1.719288, 14.665633 )     2.80596840
  Sum of centres and spreads ( 47.182344, 27.240575,316.521402 )    68.48808037

     97    -0.674E-04     0.0191123795       68.4880785832       7.18  <-- CONV
        O_D=      0.4126198 O_OD=      3.8800895 O_TOT=     68.4880786 <-- SPRD
 Delta: O_D=  0.3535669E-05 O_OD= -0.7097812E-04 O_TOT= -0.6744245E-04 <-- DLTA
 ------------------------------------------------------------------------------
 Cycle:     98
  WF centre and spread    1  (  5.128542,  2.961165, 15.953446 )     5.23197175
  WF centre and spread    2  (  5.128542,  2.961165, 15.953446 )     5.23197179
  WF centre and spread    3  (  3.077104,  1.776938, 12.241604 )     4.06853133
  WF centre and spread    4  (  3.077104,  1.776938, 12.241604 )     4.06853139
  WF centre and spread    5  (  1.025687,  0.593165, 10.988946 )     2.36814154
  WF centre and spread    6  (  1.025687,  0.593165, 10.988946 )     2.36814157
  WF centre and spread    7  (  1.025686,  0.675189, 11.137804 )     2.77247702
  WF centre and spread    8  (  1.025686,  0.675189, 11.137804 )     2.77247703
  WF centre and spread    9  (  1.025687,  0.506976, 11.137841 )     2.77202295
  WF centre and spread   10  (  1.025687,  0.506976, 11.137841 )     2.77202296
  WF centre and spread   11  (  1.025705,  0.587091, 17.694894 )     2.44419570
  WF centre and spread   12  (  1.025705,  0.587091, 17.694894 )     2.44419569
  WF centre and spread   13  (  1.025704,  0.483631, 17.547215 )     2.86753861
  WF centre and spread   14  (  1.025704,  0.483631, 17.547215 )     2.86753861
  WF centre and spread   15  (  1.025705,  0.707218, 17.547481 )     2.86536592
  WF centre and spread   16  (  1.025705,  0.707218, 17.547481 )     2.86536592
  WF centre and spread   17  (  3.077116,  1.780238, 14.680272 )     3.24210297
  WF centre and spread   18  (  3.077116,  1.780238, 14.680272 )     3.24210299
  WF centre and spread   19  (  3.077118,  1.829403, 14.665528 )     2.80574187
  WF centre and spread   20  (  3.077118,  1.829403, 14.665528 )     2.80574188
  WF centre and spread   21  (  3.077117,  1.719273, 14.665631 )     2.80592531
  WF centre and spread   22  (  3.077117,  1.719273, 14.665631 )     2.80592531
  Sum of centres and spreads ( 47.182344, 27.240571,316.521325 )    68.48803012

     98    -0.503E-04     0.0114711131       68.4880283314       7.29  <-- CONV
        O_D=      0.4126276 O_OD=      3.8800314 O_TOT=     68.4880283 <-- SPRD
 Delta: O_D=  0.7850039E-05 O_OD= -0.5810183E-04 O_TOT= -0.5025179E-04 <-- DLTA
 ------------------------------------------------------------------------------
 Cycle:     99
  WF centre and spread    1  (  5.128542,  2.961167, 15.953420 )     5.23206941
  WF centre and spread    2  (  5.128542,  2.961167, 15.953420 )     5.23206945
  WF centre and spread    3  (  3.077104,  1.776935, 12.241630 )     4.06851738
  WF centre and spread    4  (  3.077104,  1.776935, 12.241630 )     4.06851744
  WF centre and spread    5  (  1.025687,  0.593170, 10.988955 )     2.36814835
  WF centre and spread    6  (  1.025687,  0.593170, 10.988955 )     2.36814838
  WF centre and spread    7  (  1.025686,  0.675206, 11.137808 )     2.77259708
  WF centre and spread    8  (  1.025686,  0.675206, 11.137808 )     2.77259708
  WF centre and spread    9  (  1.025687,  0.506950, 11.137853 )     2.77214974
  WF centre and spread   10  (  1.025687,  0.506950, 11.137853 )     2.77214975
  WF centre and spread   11  (  1.025705,  0.587069, 17.694893 )     2.44414509
  WF centre and spread   12  (  1.025705,  0.587069, 17.694893 )     2.44414508
  WF centre and spread   13  (  1.025704,  0.483626, 17.547222 )     2.86737586
  WF centre and spread   14  (  1.025704,  0.483626, 17.547222 )     2.86737586
  WF centre and spread   15  (  1.025705,  0.707247, 17.547490 )     2.86518602
  WF centre and spread   16  (  1.025705,  0.707247, 17.547490 )     2.86518602
  WF centre and spread   17  (  3.077116,  1.780256, 14.680210 )     3.24224097
  WF centre and spread   18  (  3.077116,  1.780256, 14.680210 )     3.24224098
  WF centre and spread   19  (  3.077118,  1.829404, 14.665517 )     2.80567848
  WF centre and spread   20  (  3.077118,  1.829404, 14.665517 )     2.80567849
  WF centre and spread   21  (  3.077117,  1.719254, 14.665631 )     2.80589101
  WF centre and spread   22  (  3.077117,  1.719254, 14.665631 )     2.80589101
  Sum of centres and spreads ( 47.182344, 27.240568,316.521255 )    68.48799894

     99    -0.312E-04     0.0094534954       68.4879971512       7.36  <-- CONV
        O_D=      0.4126218 O_OD=      3.8800060 O_TOT=     68.4879972 <-- SPRD
 Delta: O_D= -0.5804075E-05 O_OD= -0.2537618E-04 O_TOT= -0.3118026E-04 <-- DLTA
 ------------------------------------------------------------------------------
 Cycle:    100
  WF centre and spread    1  (  5.128542,  2.961169, 15.953393 )     5.23225944
  WF centre and spread    2  (  5.128542,  2.961169, 15.953393 )     5.23225947
  WF centre and spread    3  (  3.077104,  1.776933, 12.241656 )     4.06840894
  WF centre and spread    4  (  3.077104,  1.776933, 12.241656 )     4.06840900
  WF centre and spread    5  (  1.025687,  0.593177, 10.988962 )     2.36807711
  WF centre and spread    6  (  1.025687,  0.593177, 10.988962 )     2.36807715
  WF centre and spread    7  (  1.025686,  0.675221, 11.137808 )     2.77273550
  WF centre and spread    8  (  1.025686,  0.675221, 11.137808 )     2.77273550
  WF centre and spread    9  (  1.025687,  0.506924, 11.137860 )     2.77228809
  WF centre and spread   10  (  1.025687,  0.506924, 11.137860 )     2.77228810
  WF centre and spread   11  (  1.025705,  0.587034, 17.694891 )     2.44408091
  WF centre and spread   12  (  1.025705,  0.587034, 17.694891 )     2.44408090
  WF centre and spread   13  (  1.025704,  0.483619, 17.547231 )     2.86718185
  WF centre and spread   14  (  1.025704,  0.483619, 17.547231 )     2.86718185
  WF centre and spread   15  (  1.025705,  0.707290, 17.547503 )     2.86497145
  WF centre and spread   16  (  1.025705,  0.707290, 17.547503 )     2.86497145
  WF centre and spread   17  (  3.077116,  1.780286, 14.680152 )     3.24248087
  WF centre and spread   18  (  3.077116,  1.780286, 14.680152 )     3.24248088
  WF centre and spread   19  (  3.077118,  1.829406, 14.665507 )     2.80562672
  WF centre and spread   20  (  3.077118,  1.829406, 14.665507 )     2.80562672
  WF centre and spread   21  (  3.077117,  1.719224, 14.665632 )     2.80587358
  WF centre and spread   22  (  3.077117,  1.719224, 14.665632 )     2.80587359
  Sum of centres and spreads ( 47.182344, 27.240566,316.521187 )    68.48796908

    100    -0.299E-04     0.0081276102       68.4879672859       7.43  <-- CONV
        O_D=      0.4126057 O_OD=      3.8799923 O_TOT=     68.4879673 <-- SPRD
 Delta: O_D= -0.1613466E-04 O_OD= -0.1373066E-04 O_TOT= -0.2986532E-04 <-- DLTA
 ------------------------------------------------------------------------------

 Writing checkpoint file wannier90.chk... done

 Final State
  WF centre and spread    1  (  5.128542,  2.961169, 15.953393 )     5.23225944
  WF centre and spread    2  (  5.128542,  2.961169, 15.953393 )     5.23225947
  WF centre and spread    3  (  3.077104,  1.776933, 12.241656 )     4.06840894
  WF centre and spread    4  (  3.077104,  1.776933, 12.241656 )     4.06840900
  WF centre and spread    5  (  1.025687,  0.593177, 10.988962 )     2.36807711
  WF centre and spread    6  (  1.025687,  0.593177, 10.988962 )     2.36807715
  WF centre and spread    7  (  1.025686,  0.675221, 11.137808 )     2.77273550
  WF centre and spread    8  (  1.025686,  0.675221, 11.137808 )     2.77273550
  WF centre and spread    9  (  1.025687,  0.506924, 11.137860 )     2.77228809
  WF centre and spread   10  (  1.025687,  0.506924, 11.137860 )     2.77228810
  WF centre and spread   11  (  1.025705,  0.587034, 17.694891 )     2.44408091
  WF centre and spread   12  (  1.025705,  0.587034, 17.694891 )     2.44408090
  WF centre and spread   13  (  1.025704,  0.483619, 17.547231 )     2.86718185
  WF centre and spread   14  (  1.025704,  0.483619, 17.547231 )     2.86718185
  WF centre and spread   15  (  1.025705,  0.707290, 17.547503 )     2.86497145
  WF centre and spread   16  (  1.025705,  0.707290, 17.547503 )     2.86497145
  WF centre and spread   17  (  3.077116,  1.780286, 14.680152 )     3.24248087
  WF centre and spread   18  (  3.077116,  1.780286, 14.680152 )     3.24248088
  WF centre and spread   19  (  3.077118,  1.829406, 14.665507 )     2.80562672
  WF centre and spread   20  (  3.077118,  1.829406, 14.665507 )     2.80562672
  WF centre and spread   21  (  3.077117,  1.719224, 14.665632 )     2.80587358
  WF centre and spread   22  (  3.077117,  1.719224, 14.665632 )     2.80587359
  Sum of centres and spreads ( 47.182344, 27.240566,316.521187 )    68.48796908

         Spreads (Ang^2)       Omega I      =    64.195369360
        ================       Omega D      =     0.412605663
                               Omega OD     =     3.879992263
    Final Spread (Ang^2)       Omega Total  =    68.487967286
 ------------------------------------------------------------------------------

 Wannier centres written to file wannier90_centres.xyz
 Time for wannierise           11.554 (sec)

 Writing checkpoint file wannier90.chk... done

 *---------------------------------------------------------------------------*
 |                               PLOTTING                                    |
 *---------------------------------------------------------------------------*


 Calculating interpolated band-structure

 Time to calculate interpolated band structure       0.616 (sec)

 Time for plotting              2.114 (sec)
 Total Execution Time          14.512 (sec)

 *===========================================================================*
 |                             TIMING INFORMATION                            |
 *===========================================================================*
 |    Tag                                                Ncalls      Time (s)|
 |---------------------------------------------------------------------------|
 |kmesh: get                                        :         1         0.119|
 |overlap: allocate                                 :         1         0.006|
 |overlap: read                                     :         1         0.690|
 |wann: main                                        :         1        11.554|
 |plot: main                                        :         1         2.114|
 *---------------------------------------------------------------------------*

 All done: wannier90 exiting
